<?xml version="1.0"?>
<VTKFile type="PolyData" version="0.1" byte_order="LittleEndian" compressor="vtkZLibDataCompressor">
	<PolyData>
		<Piece NumberOfPoints="101" NumberOfVerts="0" NumberOfLines="0" NumberOfStrips="0" NumberOfPolys="114">
			<PointData Normals="Normals">
				<DataArray type="Float32" Name="Normals" NumberOfComponents="3" format="ascii">
				0.000000 0.000000 0.000000
				0.000000 0.000000 0.000000
				0.000000 0.000000 0.000000
				0.000000 0.000000 0.000000
				0.000000 0.000000 0.000000
				0.000000 0.000000 0.000000
				0.000000 0.000000 0.000000
				0.000000 0.000000 0.000000
				0.000000 0.000000 0.000000
				0.000000 0.000000 0.000000
				0.000000 0.000000 0.000000
				0.000000 0.000000 0.000000
				0.000000 0.000000 0.000000
				0.000000 0.000000 0.000000
				0.000000 0.000000 0.000000
				0.000000 0.000000 0.000000
				0.000000 0.000000 0.000000
				0.000000 0.000000 0.000000
				0.000000 0.000000 0.000000
				0.000000 0.000000 0.000000
				0.000000 0.000000 0.000000
				0.000000 0.000000 0.000000
				0.000000 0.000000 0.000000
				0.000000 0.000000 0.000000
				0.000000 0.000000 0.000000
				0.000000 0.000000 0.000000
				0.000000 0.000000 0.000000
				0.000000 0.000000 0.000000
				0.000000 0.000000 0.000000
				0.000000 0.000000 0.000000
				0.000000 0.000000 0.000000
				0.000000 0.000000 0.000000
				0.000000 0.000000 0.000000
				0.000000 0.000000 0.000000
				0.000000 0.000000 0.000000
				0.000000 0.000000 0.000000
				0.000000 0.000000 0.000000
				0.000000 0.000000 0.000000
				0.000000 0.000000 0.000000
				0.000000 0.000000 0.000000
				0.000000 0.000000 0.000000
				0.000000 0.000000 0.000000
				0.000000 0.000000 0.000000
				0.000000 0.000000 0.000000
				0.000000 0.000000 0.000000
				0.000000 0.000000 0.000000
				0.000000 0.000000 0.000000
				0.000000 0.000000 0.000000
				0.000000 0.000000 0.000000
				0.000000 0.000000 0.000000
				0.000000 0.000000 0.000000
				0.000000 0.000000 0.000000
				0.000000 0.000000 0.000000
				0.000000 0.000000 0.000000
				0.000000 0.000000 0.000000
				0.000000 0.000000 0.000000
				0.000000 0.000000 0.000000
				0.000000 0.000000 0.000000
				0.000000 0.000000 0.000000
				0.000000 0.000000 0.000000
				0.000000 0.000000 0.000000
				0.000000 0.000000 0.000000
				0.000000 0.000000 0.000000
				0.000000 0.000000 0.000000
				0.000000 0.000000 0.000000
				0.000000 0.000000 0.000000
				0.000000 0.000000 0.000000
				0.000000 0.000000 0.000000
				0.000000 0.000000 0.000000
				0.000000 0.000000 0.000000
				0.000000 0.000000 0.000000
				0.000000 0.000000 0.000000
				0.000000 0.000000 0.000000
				0.000000 0.000000 0.000000
				0.000000 0.000000 0.000000
				0.000000 0.000000 0.000000
				0.000000 0.000000 0.000000
				0.000000 0.000000 0.000000
				0.000000 0.000000 0.000000
				0.000000 0.000000 0.000000
				0.000000 0.000000 0.000000
				0.000000 0.000000 0.000000
				0.000000 0.000000 0.000000
				0.000000 0.000000 0.000000
				0.000000 0.000000 0.000000
				0.000000 0.000000 0.000000
				0.000000 0.000000 0.000000
				0.000000 0.000000 0.000000
				0.000000 0.000000 0.000000
				0.000000 0.000000 0.000000
				0.000000 0.000000 0.000000
				0.000000 0.000000 0.000000
				0.000000 0.000000 0.000000
				0.000000 0.000000 0.000000
				0.000000 0.000000 0.000000
				0.000000 0.000000 0.000000
				0.000000 0.000000 0.000000
				0.000000 0.000000 0.000000
				0.000000 0.000000 0.000000
				0.000000 0.000000 0.000000
				0.000000 0.000000 0.000000
				</DataArray>
			</PointData>
			<Points>
				<DataArray type="Float32" NumberOfComponents="3" format="ascii">
				0.650000 -0.030000 0.000000
				0.000000 -0.030000 0.000000
				0.650000 -0.028532 -0.009271
				0.000000 -0.028532 -0.009271
				0.650000 -0.024271 -0.017634
				0.000000 -0.024271 -0.017634
				0.650000 -0.017634 -0.024271
				0.000000 -0.017634 -0.024271
				0.650000 -0.009271 -0.028532
				0.000000 -0.009271 -0.028532
				0.650000 0.000000 -0.030000
				-0.000000 0.000000 -0.030000
				0.650000 0.009271 -0.028532
				-0.000000 0.009271 -0.028532
				0.650000 0.017634 -0.024271
				-0.000000 0.017634 -0.024271
				0.650000 0.024271 -0.017634
				-0.000000 0.024271 -0.017634
				0.650000 0.028532 -0.009271
				-0.000000 0.028532 -0.009271
				0.650000 0.030000 0.000000
				-0.000000 0.030000 0.000000
				0.650000 0.028532 0.009271
				-0.000000 0.028532 0.009271
				0.650000 0.024271 0.017634
				-0.000000 0.024271 0.017634
				0.650000 0.017634 0.024271
				-0.000000 0.017634 0.024271
				0.650000 0.009271 0.028532
				-0.000000 0.009271 0.028532
				0.650000 -0.000000 0.030000
				0.000000 -0.000000 0.030000
				0.650000 -0.009271 0.028532
				0.000000 -0.009271 0.028532
				0.650000 -0.017634 0.024271
				0.000000 -0.017634 0.024271
				0.650000 -0.024271 0.017634
				0.000000 -0.024271 0.017634
				0.650000 -0.028532 0.009271
				0.000000 -0.028532 0.009271
				0.650000 -0.030000 0.000000
				0.650000 -0.028532 -0.009271
				0.650000 -0.024271 -0.017634
				0.650000 -0.017634 -0.024271
				0.650000 -0.009271 -0.028532
				0.650000 0.000000 -0.030000
				0.650000 0.009271 -0.028532
				0.650000 0.017634 -0.024271
				0.650000 0.024271 -0.017634
				0.650000 0.028532 -0.009271
				0.650000 0.030000 0.000000
				0.650000 0.028532 0.009271
				0.650000 0.024271 0.017634
				0.650000 0.017634 0.024271
				0.650000 0.009271 0.028532
				0.650000 -0.000000 0.030000
				0.650000 -0.009271 0.028532
				0.650000 -0.017634 0.024271
				0.650000 -0.024271 0.017634
				0.650000 -0.028532 0.009271
				0.000000 -0.028532 0.009271
				0.000000 -0.024271 0.017634
				0.000000 -0.017634 0.024271
				0.000000 -0.009271 0.028532
				0.000000 -0.000000 0.030000
				-0.000000 0.009271 0.028532
				-0.000000 0.017634 0.024271
				-0.000000 0.024271 0.017634
				-0.000000 0.028532 0.009271
				-0.000000 0.030000 0.000000
				-0.000000 0.028532 -0.009271
				-0.000000 0.024271 -0.017634
				-0.000000 0.017634 -0.024271
				-0.000000 0.009271 -0.028532
				-0.000000 0.000000 -0.030000
				0.000000 -0.009271 -0.028532
				0.000000 -0.017634 -0.024271
				0.000000 -0.024271 -0.017634
				0.000000 -0.028532 -0.009271
				0.000000 -0.030000 0.000000
				1.000000 0.000000 0.000000
				0.650000 0.100000 0.000000
				0.650000 0.095106 0.030902
				0.650000 0.080902 0.058779
				0.650000 0.058779 0.080902
				0.650000 0.030902 0.095106
				0.650000 -0.000000 0.100000
				0.650000 -0.030902 0.095106
				0.650000 -0.058779 0.080902
				0.650000 -0.080902 0.058779
				0.650000 -0.095106 0.030902
				0.650000 -0.100000 -0.000000
				0.650000 -0.095106 -0.030902
				0.650000 -0.080902 -0.058779
				0.650000 -0.058779 -0.080902
				0.650000 -0.030902 -0.095106
				0.650000 0.000000 -0.100000
				0.650000 0.030902 -0.095106
				0.650000 0.058779 -0.080902
				0.650000 0.080902 -0.058779
				0.650000 0.095106 -0.030902
				</DataArray>
			</Points>
			<Polys>
				<DataArray type="Int32" Name="connectivity" format="ascii">
					0 1 3
					0 3 2
					2 3 5
					2 5 4
					4 5 7
					4 7 6
					6 7 9
					6 9 8
					8 9 11
					8 11 10
					10 11 13
					10 13 12
					12 13 15
					12 15 14
					14 15 17
					14 17 16
					16 17 19
					16 19 18
					18 19 21
					18 21 20
					20 21 23
					20 23 22
					22 23 25
					22 25 24
					24 25 27
					24 27 26
					26 27 29
					26 29 28
					28 29 31
					28 31 30
					30 31 33
					30 33 32
					32 33 35
					32 35 34
					34 35 37
					34 37 36
					36 37 39
					36 39 38
					38 39 1
					38 1 0
					40 41 42
					40 42 43
					40 43 44
					40 44 45
					40 45 46
					40 46 47
					40 47 48
					40 48 49
					40 49 50
					40 50 51
					40 51 52
					40 52 53
					40 53 54
					40 54 55
					40 55 56
					40 56 57
					40 57 58
					40 58 59
					60 61 62
					60 62 63
					60 63 64
					60 64 65
					60 65 66
					60 66 67
					60 67 68
					60 68 69
					60 69 70
					60 70 71
					60 71 72
					60 72 73
					60 73 74
					60 74 75
					60 75 76
					60 76 77
					60 77 78
					60 78 79
					100 99 98
					100 98 97
					100 97 96
					100 96 95
					100 95 94
					100 94 93
					100 93 92
					100 92 91
					100 91 90
					100 90 89
					100 89 88
					100 88 87
					100 87 86
					100 86 85
					100 85 84
					100 84 83
					100 83 82
					100 82 81
					80 81 82
					80 82 83
					80 83 84
					80 84 85
					80 85 86
					80 86 87
					80 87 88
					80 88 89
					80 89 90
					80 90 91
					80 91 92
					80 92 93
					80 93 94
					80 94 95
					80 95 96
					80 96 97
					80 97 98
					80 98 99
					80 99 100
					80 100 81
				</DataArray>
				<DataArray type="Int32" Name="offsets" format="ascii">
					3 6 9 12 15 18 21 24 27 30 33 36 39 42 45 48 51 54 57 60 63 66 69 72 75 78 81 84 87 90 93 96 99 102 105 108 111 114 117 120 123 126 129 132 135 138 141 144 147 150 153 156 159 162 165 168 171 174 177 180 183 186 189 192 195 198 201 204 207 210 213 216 219 222 225 228 231 234 237 240 243 246 249 252 255 258 261 264 267 270 273 276 279 282 285 288 291 294 297 300 303 306 309 312 315 318 321 324 327 330 333 336 339 342
				</DataArray>
			</Polys>
		</Piece>
	</PolyData>
</VTKFile>
