<?xml version="1.0"?>
<VTKFile type="PolyData" version="0.1" byte_order="LittleEndian" compressor="vtkZLibDataCompressor">
	<PolyData>
		<Piece NumberOfPoints="24" NumberOfVerts="0" NumberOfLines="0" NumberOfStrips="0" NumberOfPolys="12">
			<PointData Normals="Normals">
				<DataArray type="Float32" Name="Normals" NumberOfComponents="3" format="ascii">
				0.000000 0.000000 0.000000
				0.000000 0.000000 0.000000
				0.000000 0.000000 0.000000
				0.000000 0.000000 0.000000
				0.000000 0.000000 0.000000
				0.000000 0.000000 0.000000
				0.000000 0.000000 0.000000
				0.000000 0.000000 0.000000
				0.000000 0.000000 0.000000
				0.000000 0.000000 0.000000
				0.000000 0.000000 0.000000
				0.000000 0.000000 0.000000
				0.000000 0.000000 0.000000
				0.000000 0.000000 0.000000
				0.000000 0.000000 0.000000
				0.000000 0.000000 0.000000
				0.000000 0.000000 0.000000
				0.000000 0.000000 0.000000
				0.000000 0.000000 0.000000
				0.000000 0.000000 0.000000
				0.000000 0.000000 0.000000
				0.000000 0.000000 0.000000
				0.000000 0.000000 0.000000
				0.000000 0.000000 0.000000
				</DataArray>
			</PointData>
			<Points>
				<DataArray type="Float32" NumberOfComponents="3" format="ascii">
				-0.100000 -0.100000 -0.100000
				-0.100000 -0.100000 0.100000
				-0.100000 0.100000 -0.100000
				-0.100000 0.100000 0.100000
				0.100000 -0.100000 -0.100000
				0.100000 -0.100000 0.100000
				0.100000 0.100000 -0.100000
				0.100000 0.100000 0.100000
				-0.100000 -0.100000 -0.100000
				-0.100000 -0.100000 0.100000
				0.100000 -0.100000 -0.100000
				0.100000 -0.100000 0.100000
				-0.100000 0.100000 -0.100000
				-0.100000 0.100000 0.100000
				0.100000 0.100000 -0.100000
				0.100000 0.100000 0.100000
				-0.100000 -0.100000 -0.100000
				0.100000 -0.100000 -0.100000
				-0.100000 0.100000 -0.100000
				0.100000 0.100000 -0.100000
				-0.100000 -0.100000 0.100000
				0.100000 -0.100000 0.100000
				-0.100000 0.100000 0.100000
				0.100000 0.100000 0.100000
				</DataArray>
			</Points>
			<Polys>
				<DataArray type="Int32" Name="connectivity" format="ascii">
					0 1 3
					0 3 2
					4 6 7
					4 7 5
					8 10 11
					8 11 9
					12 13 15
					12 15 14
					16 18 19
					16 19 17
					20 21 23
					20 23 22
				</DataArray>
				<DataArray type="Int32" Name="offsets" format="ascii">
					3 6 9 12 15 18 21 24 27 30 33 36
				</DataArray>
			</Polys>
		</Piece>
	</PolyData>
</VTKFile>
