<?xml version="1.0"?>
<VTKFile type="PolyData" version="0.1" byte_order="LittleEndian" compressor="vtkZLibDataCompressor">
	<PolyData>
		<Piece NumberOfPoints="200" NumberOfVerts="0" NumberOfLines="0" NumberOfStrips="0" NumberOfPolys="184">
			<PointData Normals="Normals">
				<DataArray type="Float32" Name="Normals" NumberOfComponents="3" format="ascii">
				0.000000 0.000000 0.000000
				0.000000 0.000000 0.000000
				0.000000 0.000000 0.000000
				0.000000 0.000000 0.000000
				0.000000 0.000000 0.000000
				0.000000 0.000000 0.000000
				0.000000 0.000000 0.000000
				0.000000 0.000000 0.000000
				0.000000 0.000000 0.000000
				0.000000 0.000000 0.000000
				0.000000 0.000000 0.000000
				0.000000 0.000000 0.000000
				0.000000 0.000000 0.000000
				0.000000 0.000000 0.000000
				0.000000 0.000000 0.000000
				0.000000 0.000000 0.000000
				0.000000 0.000000 0.000000
				0.000000 0.000000 0.000000
				0.000000 0.000000 0.000000
				0.000000 0.000000 0.000000
				0.000000 0.000000 0.000000
				0.000000 0.000000 0.000000
				0.000000 0.000000 0.000000
				0.000000 0.000000 0.000000
				0.000000 0.000000 0.000000
				0.000000 0.000000 0.000000
				0.000000 0.000000 0.000000
				0.000000 0.000000 0.000000
				0.000000 0.000000 0.000000
				0.000000 0.000000 0.000000
				0.000000 0.000000 0.000000
				0.000000 0.000000 0.000000
				0.000000 0.000000 0.000000
				0.000000 0.000000 0.000000
				0.000000 0.000000 0.000000
				0.000000 0.000000 0.000000
				0.000000 0.000000 0.000000
				0.000000 0.000000 0.000000
				0.000000 0.000000 0.000000
				0.000000 0.000000 0.000000
				0.000000 0.000000 0.000000
				0.000000 0.000000 0.000000
				0.000000 0.000000 0.000000
				0.000000 0.000000 0.000000
				0.000000 0.000000 0.000000
				0.000000 0.000000 0.000000
				0.000000 0.000000 0.000000
				0.000000 0.000000 0.000000
				0.000000 0.000000 0.000000
				0.000000 0.000000 0.000000
				0.000000 0.000000 0.000000
				0.000000 0.000000 0.000000
				0.000000 0.000000 0.000000
				0.000000 0.000000 0.000000
				0.000000 0.000000 0.000000
				0.000000 0.000000 0.000000
				0.000000 0.000000 0.000000
				0.000000 0.000000 0.000000
				0.000000 0.000000 0.000000
				0.000000 0.000000 0.000000
				0.000000 0.000000 0.000000
				0.000000 0.000000 0.000000
				0.000000 0.000000 0.000000
				0.000000 0.000000 0.000000
				0.000000 0.000000 0.000000
				0.000000 0.000000 0.000000
				0.000000 0.000000 0.000000
				0.000000 0.000000 0.000000
				0.000000 0.000000 0.000000
				0.000000 0.000000 0.000000
				0.000000 0.000000 0.000000
				0.000000 0.000000 0.000000
				0.000000 0.000000 0.000000
				0.000000 0.000000 0.000000
				0.000000 0.000000 0.000000
				0.000000 0.000000 0.000000
				0.000000 0.000000 0.000000
				0.000000 0.000000 0.000000
				0.000000 0.000000 0.000000
				0.000000 0.000000 0.000000
				0.000000 0.000000 0.000000
				0.000000 0.000000 0.000000
				0.000000 0.000000 0.000000
				0.000000 0.000000 0.000000
				0.000000 0.000000 0.000000
				0.000000 0.000000 0.000000
				0.000000 0.000000 0.000000
				0.000000 0.000000 0.000000
				0.000000 0.000000 0.000000
				0.000000 0.000000 0.000000
				0.000000 0.000000 0.000000
				0.000000 0.000000 0.000000
				0.000000 0.000000 0.000000
				0.000000 0.000000 0.000000
				0.000000 0.000000 0.000000
				0.000000 0.000000 0.000000
				0.000000 0.000000 0.000000
				0.000000 0.000000 0.000000
				0.000000 0.000000 0.000000
				0.000000 0.000000 0.000000
				0.000000 0.000000 0.000000
				0.000000 0.000000 0.000000
				0.000000 0.000000 0.000000
				0.000000 0.000000 0.000000
				0.000000 0.000000 0.000000
				0.000000 0.000000 0.000000
				0.000000 0.000000 0.000000
				0.000000 0.000000 0.000000
				0.000000 0.000000 0.000000
				0.000000 0.000000 0.000000
				0.000000 0.000000 0.000000
				0.000000 0.000000 0.000000
				0.000000 0.000000 0.000000
				0.000000 0.000000 0.000000
				0.000000 0.000000 0.000000
				0.000000 0.000000 0.000000
				0.000000 0.000000 0.000000
				0.000000 0.000000 0.000000
				0.000000 0.000000 0.000000
				0.000000 0.000000 0.000000
				0.000000 0.000000 0.000000
				0.000000 0.000000 0.000000
				0.000000 0.000000 0.000000
				0.000000 0.000000 0.000000
				0.000000 0.000000 0.000000
				0.000000 0.000000 0.000000
				0.000000 0.000000 0.000000
				0.000000 0.000000 0.000000
				0.000000 0.000000 0.000000
				0.000000 0.000000 0.000000
				0.000000 0.000000 0.000000
				0.000000 0.000000 0.000000
				0.000000 0.000000 0.000000
				0.000000 0.000000 0.000000
				0.000000 0.000000 0.000000
				0.000000 0.000000 0.000000
				0.000000 0.000000 0.000000
				0.000000 0.000000 0.000000
				0.000000 0.000000 0.000000
				0.000000 0.000000 0.000000
				0.000000 0.000000 0.000000
				0.000000 0.000000 0.000000
				0.000000 0.000000 0.000000
				0.000000 0.000000 0.000000
				0.000000 0.000000 0.000000
				0.000000 0.000000 0.000000
				0.000000 0.000000 0.000000
				0.000000 0.000000 0.000000
				0.000000 0.000000 0.000000
				0.000000 0.000000 0.000000
				0.000000 0.000000 0.000000
				0.000000 0.000000 0.000000
				0.000000 0.000000 0.000000
				0.000000 0.000000 0.000000
				0.000000 0.000000 0.000000
				0.000000 0.000000 0.000000
				0.000000 0.000000 0.000000
				0.000000 0.000000 0.000000
				0.000000 0.000000 0.000000
				0.000000 0.000000 0.000000
				0.000000 0.000000 0.000000
				0.000000 0.000000 0.000000
				0.000000 0.000000 0.000000
				0.000000 0.000000 0.000000
				0.000000 0.000000 0.000000
				0.000000 0.000000 0.000000
				0.000000 0.000000 0.000000
				0.000000 0.000000 0.000000
				0.000000 0.000000 0.000000
				0.000000 0.000000 0.000000
				0.000000 0.000000 0.000000
				0.000000 0.000000 0.000000
				0.000000 0.000000 0.000000
				0.000000 0.000000 0.000000
				0.000000 0.000000 0.000000
				0.000000 0.000000 0.000000
				0.000000 0.000000 0.000000
				0.000000 0.000000 0.000000
				0.000000 0.000000 0.000000
				0.000000 0.000000 0.000000
				0.000000 0.000000 0.000000
				0.000000 0.000000 0.000000
				0.000000 0.000000 0.000000
				0.000000 0.000000 0.000000
				0.000000 0.000000 0.000000
				0.000000 0.000000 0.000000
				0.000000 0.000000 0.000000
				0.000000 0.000000 0.000000
				0.000000 0.000000 0.000000
				0.000000 0.000000 0.000000
				0.000000 0.000000 0.000000
				0.000000 0.000000 0.000000
				0.000000 0.000000 0.000000
				0.000000 0.000000 0.000000
				0.000000 0.000000 0.000000
				0.000000 0.000000 0.000000
				0.000000 0.000000 0.000000
				0.000000 0.000000 0.000000
				0.000000 0.000000 0.000000
				0.000000 0.000000 0.000000
				</DataArray>
			</PointData>
			<Points>
				<DataArray type="Float32" NumberOfComponents="3" format="ascii">
				0.075000 -0.050000 0.000000
				0.075000 -0.150000 0.000000
				0.071329 -0.050000 -0.023176
				0.071329 -0.150000 -0.023176
				0.060676 -0.050000 -0.044084
				0.060676 -0.150000 -0.044084
				0.044084 -0.050000 -0.060676
				0.044084 -0.150000 -0.060676
				0.023176 -0.050000 -0.071329
				0.023176 -0.150000 -0.071329
				-0.000000 -0.050000 -0.075000
				-0.000000 -0.150000 -0.075000
				-0.023176 -0.050000 -0.071329
				-0.023176 -0.150000 -0.071329
				-0.044084 -0.050000 -0.060676
				-0.044084 -0.150000 -0.060676
				-0.060676 -0.050000 -0.044084
				-0.060676 -0.150000 -0.044084
				-0.071329 -0.050000 -0.023176
				-0.071329 -0.150000 -0.023176
				-0.075000 -0.050000 0.000000
				-0.075000 -0.150000 0.000000
				-0.071329 -0.050000 0.023176
				-0.071329 -0.150000 0.023176
				-0.060676 -0.050000 0.044084
				-0.060676 -0.150000 0.044084
				-0.044084 -0.050000 0.060676
				-0.044084 -0.150000 0.060676
				-0.023176 -0.050000 0.071329
				-0.023176 -0.150000 0.071329
				0.000000 -0.050000 0.075000
				0.000000 -0.150000 0.075000
				0.023176 -0.050000 0.071329
				0.023176 -0.150000 0.071329
				0.044084 -0.050000 0.060676
				0.044084 -0.150000 0.060676
				0.060676 -0.050000 0.044084
				0.060676 -0.150000 0.044084
				0.071329 -0.050000 0.023176
				0.071329 -0.150000 0.023176
				0.075000 -0.050000 0.000000
				0.071329 -0.050000 -0.023176
				0.060676 -0.050000 -0.044084
				0.044084 -0.050000 -0.060676
				0.023176 -0.050000 -0.071329
				-0.000000 -0.050000 -0.075000
				-0.023176 -0.050000 -0.071329
				-0.044084 -0.050000 -0.060676
				-0.060676 -0.050000 -0.044084
				-0.071329 -0.050000 -0.023176
				-0.075000 -0.050000 0.000000
				-0.071329 -0.050000 0.023176
				-0.060676 -0.050000 0.044084
				-0.044084 -0.050000 0.060676
				-0.023176 -0.050000 0.071329
				0.000000 -0.050000 0.075000
				0.023176 -0.050000 0.071329
				0.044084 -0.050000 0.060676
				0.060676 -0.050000 0.044084
				0.071329 -0.050000 0.023176
				0.071329 -0.150000 0.023176
				0.060676 -0.150000 0.044084
				0.044084 -0.150000 0.060676
				0.023176 -0.150000 0.071329
				0.000000 -0.150000 0.075000
				-0.023176 -0.150000 0.071329
				-0.044084 -0.150000 0.060676
				-0.060676 -0.150000 0.044084
				-0.071329 -0.150000 0.023176
				-0.075000 -0.150000 0.000000
				-0.071329 -0.150000 -0.023176
				-0.060676 -0.150000 -0.044084
				-0.044084 -0.150000 -0.060676
				-0.023176 -0.150000 -0.071329
				-0.000000 -0.150000 -0.075000
				0.023176 -0.150000 -0.071329
				0.044084 -0.150000 -0.060676
				0.060676 -0.150000 -0.044084
				0.071329 -0.150000 -0.023176
				0.075000 -0.150000 0.000000
				0.010000 0.000000 -0.065000
				0.010000 -0.100000 -0.065000
				0.008090 0.000000 -0.070878
				0.008090 -0.100000 -0.070878
				0.003090 0.000000 -0.074511
				0.003090 -0.100000 -0.074511
				-0.003090 0.000000 -0.074511
				-0.003090 -0.100000 -0.074511
				-0.008090 0.000000 -0.070878
				-0.008090 -0.100000 -0.070878
				-0.010000 0.000000 -0.065000
				-0.010000 -0.100000 -0.065000
				-0.008090 0.000000 -0.059122
				-0.008090 -0.100000 -0.059122
				-0.003090 0.000000 -0.055489
				-0.003090 -0.100000 -0.055489
				0.003090 0.000000 -0.055489
				0.003090 -0.100000 -0.055489
				0.008090 0.000000 -0.059122
				0.008090 -0.100000 -0.059122
				0.010000 0.000000 -0.065000
				0.008090 0.000000 -0.070878
				0.003090 0.000000 -0.074511
				-0.003090 0.000000 -0.074511
				-0.008090 0.000000 -0.070878
				-0.010000 0.000000 -0.065000
				-0.008090 0.000000 -0.059122
				-0.003090 0.000000 -0.055489
				0.003090 0.000000 -0.055489
				0.008090 0.000000 -0.059122
				0.008090 -0.100000 -0.059122
				0.003090 -0.100000 -0.055489
				-0.003090 -0.100000 -0.055489
				-0.008090 -0.100000 -0.059122
				-0.010000 -0.100000 -0.065000
				-0.008090 -0.100000 -0.070878
				-0.003090 -0.100000 -0.074511
				0.003090 -0.100000 -0.074511
				0.008090 -0.100000 -0.070878
				0.010000 -0.100000 -0.065000
				0.010000 0.000000 0.065000
				0.010000 -0.100000 0.065000
				0.008090 0.000000 0.059122
				0.008090 -0.100000 0.059122
				0.003090 0.000000 0.055489
				0.003090 -0.100000 0.055489
				-0.003090 0.000000 0.055489
				-0.003090 -0.100000 0.055489
				-0.008090 0.000000 0.059122
				-0.008090 -0.100000 0.059122
				-0.010000 0.000000 0.065000
				-0.010000 -0.100000 0.065000
				-0.008090 0.000000 0.070878
				-0.008090 -0.100000 0.070878
				-0.003090 0.000000 0.074511
				-0.003090 -0.100000 0.074511
				0.003090 0.000000 0.074511
				0.003090 -0.100000 0.074511
				0.008090 0.000000 0.070878
				0.008090 -0.100000 0.070878
				0.010000 0.000000 0.065000
				0.008090 0.000000 0.059122
				0.003090 0.000000 0.055489
				-0.003090 0.000000 0.055489
				-0.008090 0.000000 0.059122
				-0.010000 0.000000 0.065000
				-0.008090 0.000000 0.070878
				-0.003090 0.000000 0.074511
				0.003090 0.000000 0.074511
				0.008090 0.000000 0.070878
				0.008090 -0.100000 0.070878
				0.003090 -0.100000 0.074511
				-0.003090 -0.100000 0.074511
				-0.008090 -0.100000 0.070878
				-0.010000 -0.100000 0.065000
				-0.008090 -0.100000 0.059122
				-0.003090 -0.100000 0.055489
				0.003090 -0.100000 0.055489
				0.008090 -0.100000 0.059122
				0.010000 -0.100000 0.065000
				0.010000 0.000000 0.075000
				0.010000 0.000000 -0.075000
				0.008090 0.005878 0.075000
				0.008090 0.005878 -0.075000
				0.003090 0.009511 0.075000
				0.003090 0.009511 -0.075000
				-0.003090 0.009511 0.075000
				-0.003090 0.009511 -0.075000
				-0.008090 0.005878 0.075000
				-0.008090 0.005878 -0.075000
				-0.010000 0.000000 0.075000
				-0.010000 0.000000 -0.075000
				-0.008090 -0.005878 0.075000
				-0.008090 -0.005878 -0.075000
				-0.003090 -0.009511 0.075000
				-0.003090 -0.009511 -0.075000
				0.003090 -0.009511 0.075000
				0.003090 -0.009511 -0.075000
				0.008090 -0.005878 0.075000
				0.008090 -0.005878 -0.075000
				0.010000 0.000000 0.075000
				0.008090 0.005878 0.075000
				0.003090 0.009511 0.075000
				-0.003090 0.009511 0.075000
				-0.008090 0.005878 0.075000
				-0.010000 0.000000 0.075000
				-0.008090 -0.005878 0.075000
				-0.003090 -0.009511 0.075000
				0.003090 -0.009511 0.075000
				0.008090 -0.005878 0.075000
				0.008090 -0.005878 -0.075000
				0.003090 -0.009511 -0.075000
				-0.003090 -0.009511 -0.075000
				-0.008090 -0.005878 -0.075000
				-0.010000 0.000000 -0.075000
				-0.008090 0.005878 -0.075000
				-0.003090 0.009511 -0.075000
				0.003090 0.009511 -0.075000
				0.008090 0.005878 -0.075000
				0.010000 0.000000 -0.075000
				</DataArray>
			</Points>
			<Polys>
				<DataArray type="Int32" Name="connectivity" format="ascii">
					0 1 3
					0 3 2
					2 3 5
					2 5 4
					4 5 7
					4 7 6
					6 7 9
					6 9 8
					8 9 11
					8 11 10
					10 11 13
					10 13 12
					12 13 15
					12 15 14
					14 15 17
					14 17 16
					16 17 19
					16 19 18
					18 19 21
					18 21 20
					20 21 23
					20 23 22
					22 23 25
					22 25 24
					24 25 27
					24 27 26
					26 27 29
					26 29 28
					28 29 31
					28 31 30
					30 31 33
					30 33 32
					32 33 35
					32 35 34
					34 35 37
					34 37 36
					36 37 39
					36 39 38
					38 39 1
					38 1 0
					40 41 42
					40 42 43
					40 43 44
					40 44 45
					40 45 46
					40 46 47
					40 47 48
					40 48 49
					40 49 50
					40 50 51
					40 51 52
					40 52 53
					40 53 54
					40 54 55
					40 55 56
					40 56 57
					40 57 58
					40 58 59
					60 61 62
					60 62 63
					60 63 64
					60 64 65
					60 65 66
					60 66 67
					60 67 68
					60 68 69
					60 69 70
					60 70 71
					60 71 72
					60 72 73
					60 73 74
					60 74 75
					60 75 76
					60 76 77
					60 77 78
					60 78 79
					80 81 83
					80 83 82
					82 83 85
					82 85 84
					84 85 87
					84 87 86
					86 87 89
					86 89 88
					88 89 91
					88 91 90
					90 91 93
					90 93 92
					92 93 95
					92 95 94
					94 95 97
					94 97 96
					96 97 99
					96 99 98
					98 99 81
					98 81 80
					100 101 102
					100 102 103
					100 103 104
					100 104 105
					100 105 106
					100 106 107
					100 107 108
					100 108 109
					110 111 112
					110 112 113
					110 113 114
					110 114 115
					110 115 116
					110 116 117
					110 117 118
					110 118 119
					120 121 123
					120 123 122
					122 123 125
					122 125 124
					124 125 127
					124 127 126
					126 127 129
					126 129 128
					128 129 131
					128 131 130
					130 131 133
					130 133 132
					132 133 135
					132 135 134
					134 135 137
					134 137 136
					136 137 139
					136 139 138
					138 139 121
					138 121 120
					140 141 142
					140 142 143
					140 143 144
					140 144 145
					140 145 146
					140 146 147
					140 147 148
					140 148 149
					150 151 152
					150 152 153
					150 153 154
					150 154 155
					150 155 156
					150 156 157
					150 157 158
					150 158 159
					160 161 163
					160 163 162
					162 163 165
					162 165 164
					164 165 167
					164 167 166
					166 167 169
					166 169 168
					168 169 171
					168 171 170
					170 171 173
					170 173 172
					172 173 175
					172 175 174
					174 175 177
					174 177 176
					176 177 179
					176 179 178
					178 179 161
					178 161 160
					180 181 182
					180 182 183
					180 183 184
					180 184 185
					180 185 186
					180 186 187
					180 187 188
					180 188 189
					190 191 192
					190 192 193
					190 193 194
					190 194 195
					190 195 196
					190 196 197
					190 197 198
					190 198 199
				</DataArray>
				<DataArray type="Int32" Name="offsets" format="ascii">
					3 6 9 12 15 18 21 24 27 30 33 36 39 42 45 48 51 54 57 60 63 66 69 72 75 78 81 84 87 90 93 96 99 102 105 108 111 114 117 120 123 126 129 132 135 138 141 144 147 150 153 156 159 162 165 168 171 174 177 180 183 186 189 192 195 198 201 204 207 210 213 216 219 222 225 228 231 234 237 240 243 246 249 252 255 258 261 264 267 270 273 276 279 282 285 288 291 294 297 300 303 306 309 312 315 318 321 324 327 330 333 336 339 342 345 348 351 354 357 360 363 366 369 372 375 378 381 384 387 390 393 396 399 402 405 408 411 414 417 420 423 426 429 432 435 438 441 444 447 450 453 456 459 462 465 468 471 474 477 480 483 486 489 492 495 498 501 504 507 510 513 516 519 522 525 528 531 534 537 540 543 546 549 552
				</DataArray>
			</Polys>
		</Piece>
	</PolyData>
</VTKFile>
