<?xml version="1.0"?>
<VTKFile type="PolyData" version="0.1" byte_order="LittleEndian" compressor="vtkZLibDataCompressor">
	<PolyData>
		<Piece NumberOfPoints="310" NumberOfVerts="0" NumberOfLines="0" NumberOfStrips="0" NumberOfPolys="628">
			<PointData Normals="Normals">
				<DataArray type="Float32" Name="Normals" NumberOfComponents="3" format="ascii">
				0.000000 0.000000 0.000000
				0.000000 0.000000 0.000000
				0.000000 0.000000 0.000000
				0.000000 0.000000 0.000000
				0.000000 0.000000 0.000000
				0.000000 0.000000 0.000000
				0.000000 0.000000 0.000000
				0.000000 0.000000 0.000000
				0.000000 0.000000 0.000000
				0.000000 0.000000 0.000000
				0.000000 0.000000 0.000000
				0.000000 0.000000 0.000000
				0.000000 0.000000 0.000000
				0.000000 0.000000 0.000000
				0.000000 0.000000 0.000000
				0.000000 0.000000 0.000000
				0.000000 0.000000 0.000000
				0.000000 0.000000 0.000000
				0.000000 0.000000 0.000000
				0.000000 0.000000 0.000000
				0.000000 0.000000 0.000000
				0.000000 0.000000 0.000000
				0.000000 0.000000 0.000000
				0.000000 0.000000 0.000000
				0.000000 0.000000 0.000000
				0.000000 0.000000 0.000000
				0.000000 0.000000 0.000000
				0.000000 0.000000 0.000000
				0.000000 0.000000 0.000000
				0.000000 0.000000 0.000000
				0.000000 0.000000 0.000000
				0.000000 0.000000 0.000000
				0.000000 0.000000 0.000000
				0.000000 0.000000 0.000000
				0.000000 0.000000 0.000000
				0.000000 0.000000 0.000000
				0.000000 0.000000 0.000000
				0.000000 0.000000 0.000000
				0.000000 0.000000 0.000000
				0.000000 0.000000 0.000000
				0.000000 0.000000 0.000000
				0.000000 0.000000 0.000000
				0.000000 0.000000 0.000000
				0.000000 0.000000 0.000000
				0.000000 0.000000 0.000000
				0.000000 0.000000 0.000000
				0.000000 0.000000 0.000000
				0.000000 0.000000 0.000000
				0.000000 0.000000 0.000000
				0.000000 0.000000 0.000000
				0.000000 0.000000 0.000000
				0.000000 0.000000 0.000000
				0.000000 0.000000 0.000000
				0.000000 0.000000 0.000000
				0.000000 0.000000 0.000000
				0.000000 0.000000 0.000000
				0.000000 0.000000 0.000000
				0.000000 0.000000 0.000000
				0.000000 0.000000 0.000000
				0.000000 0.000000 0.000000
				0.000000 0.000000 0.000000
				0.000000 0.000000 0.000000
				0.000000 0.000000 0.000000
				0.000000 0.000000 0.000000
				0.000000 0.000000 0.000000
				0.000000 0.000000 0.000000
				0.000000 0.000000 0.000000
				0.000000 0.000000 0.000000
				0.000000 0.000000 0.000000
				0.000000 0.000000 0.000000
				0.000000 0.000000 0.000000
				0.000000 0.000000 0.000000
				0.000000 0.000000 0.000000
				0.000000 0.000000 0.000000
				0.000000 0.000000 0.000000
				0.000000 0.000000 0.000000
				0.000000 0.000000 0.000000
				0.000000 0.000000 0.000000
				0.000000 0.000000 0.000000
				0.000000 0.000000 0.000000
				0.000000 0.000000 0.000000
				0.000000 0.000000 0.000000
				0.000000 0.000000 0.000000
				0.000000 0.000000 0.000000
				0.000000 0.000000 0.000000
				0.000000 0.000000 0.000000
				0.000000 0.000000 0.000000
				0.000000 0.000000 0.000000
				0.000000 0.000000 0.000000
				0.000000 0.000000 0.000000
				0.000000 0.000000 0.000000
				0.000000 0.000000 0.000000
				0.000000 0.000000 0.000000
				0.000000 0.000000 0.000000
				0.000000 0.000000 0.000000
				0.000000 0.000000 0.000000
				0.000000 0.000000 0.000000
				0.000000 0.000000 0.000000
				0.000000 0.000000 0.000000
				0.000000 0.000000 0.000000
				0.000000 0.000000 0.000000
				0.000000 0.000000 0.000000
				0.000000 0.000000 0.000000
				0.000000 0.000000 0.000000
				0.000000 0.000000 0.000000
				0.000000 0.000000 0.000000
				0.000000 0.000000 0.000000
				0.000000 0.000000 0.000000
				0.000000 0.000000 0.000000
				0.000000 0.000000 0.000000
				0.000000 0.000000 0.000000
				0.000000 0.000000 0.000000
				0.000000 0.000000 0.000000
				0.000000 0.000000 0.000000
				0.000000 0.000000 0.000000
				0.000000 0.000000 0.000000
				0.000000 0.000000 0.000000
				0.000000 0.000000 0.000000
				0.000000 0.000000 0.000000
				0.000000 0.000000 0.000000
				0.000000 0.000000 0.000000
				0.000000 0.000000 0.000000
				0.000000 0.000000 0.000000
				0.000000 0.000000 0.000000
				0.000000 0.000000 0.000000
				0.000000 0.000000 0.000000
				0.000000 0.000000 0.000000
				0.000000 0.000000 0.000000
				0.000000 0.000000 0.000000
				0.000000 0.000000 0.000000
				0.000000 0.000000 0.000000
				0.000000 0.000000 0.000000
				0.000000 0.000000 0.000000
				0.000000 0.000000 0.000000
				0.000000 0.000000 0.000000
				0.000000 0.000000 0.000000
				0.000000 0.000000 0.000000
				0.000000 0.000000 0.000000
				0.000000 0.000000 0.000000
				0.000000 0.000000 0.000000
				0.000000 0.000000 0.000000
				0.000000 0.000000 0.000000
				0.000000 0.000000 0.000000
				0.000000 0.000000 0.000000
				0.000000 0.000000 0.000000
				0.000000 0.000000 0.000000
				0.000000 0.000000 0.000000
				0.000000 0.000000 0.000000
				0.000000 0.000000 0.000000
				0.000000 0.000000 0.000000
				0.000000 0.000000 0.000000
				0.000000 0.000000 0.000000
				0.000000 0.000000 0.000000
				0.000000 0.000000 0.000000
				0.000000 0.000000 0.000000
				0.000000 0.000000 0.000000
				0.000000 0.000000 0.000000
				0.000000 0.000000 0.000000
				0.000000 0.000000 0.000000
				0.000000 0.000000 0.000000
				0.000000 0.000000 0.000000
				0.000000 0.000000 0.000000
				0.000000 0.000000 0.000000
				0.000000 0.000000 0.000000
				0.000000 0.000000 0.000000
				0.000000 0.000000 0.000000
				0.000000 0.000000 0.000000
				0.000000 0.000000 0.000000
				0.000000 0.000000 0.000000
				0.000000 0.000000 0.000000
				0.000000 0.000000 0.000000
				0.000000 0.000000 0.000000
				0.000000 0.000000 0.000000
				0.000000 0.000000 0.000000
				0.000000 0.000000 0.000000
				0.000000 0.000000 0.000000
				0.000000 0.000000 0.000000
				0.000000 0.000000 0.000000
				0.000000 0.000000 0.000000
				0.000000 0.000000 0.000000
				0.000000 0.000000 0.000000
				0.000000 0.000000 0.000000
				0.000000 0.000000 0.000000
				0.000000 0.000000 0.000000
				0.000000 0.000000 0.000000
				0.000000 0.000000 0.000000
				0.000000 0.000000 0.000000
				0.000000 0.000000 0.000000
				0.000000 0.000000 0.000000
				0.000000 0.000000 0.000000
				0.000000 0.000000 0.000000
				0.000000 0.000000 0.000000
				0.000000 0.000000 0.000000
				0.000000 0.000000 0.000000
				0.000000 0.000000 0.000000
				0.000000 0.000000 0.000000
				0.000000 0.000000 0.000000
				0.000000 0.000000 0.000000
				0.000000 0.000000 0.000000
				0.000000 0.000000 0.000000
				0.000000 0.000000 0.000000
				0.000000 0.000000 0.000000
				0.000000 0.000000 0.000000
				0.000000 0.000000 0.000000
				0.000000 0.000000 0.000000
				0.000000 0.000000 0.000000
				0.000000 0.000000 0.000000
				0.000000 0.000000 0.000000
				0.000000 0.000000 0.000000
				0.000000 0.000000 0.000000
				0.000000 0.000000 0.000000
				0.000000 0.000000 0.000000
				0.000000 0.000000 0.000000
				0.000000 0.000000 0.000000
				0.000000 0.000000 0.000000
				0.000000 0.000000 0.000000
				0.000000 0.000000 0.000000
				0.000000 0.000000 0.000000
				0.000000 0.000000 0.000000
				0.000000 0.000000 0.000000
				0.000000 0.000000 0.000000
				0.000000 0.000000 0.000000
				0.000000 0.000000 0.000000
				0.000000 0.000000 0.000000
				0.000000 0.000000 0.000000
				0.000000 0.000000 0.000000
				0.000000 0.000000 0.000000
				0.000000 0.000000 0.000000
				0.000000 0.000000 0.000000
				0.000000 0.000000 0.000000
				0.000000 0.000000 0.000000
				0.000000 0.000000 0.000000
				0.000000 0.000000 0.000000
				0.000000 0.000000 0.000000
				0.000000 0.000000 0.000000
				0.000000 0.000000 0.000000
				0.000000 0.000000 0.000000
				0.000000 0.000000 0.000000
				0.000000 0.000000 0.000000
				0.000000 0.000000 0.000000
				0.000000 0.000000 0.000000
				0.000000 0.000000 0.000000
				0.000000 0.000000 0.000000
				0.000000 0.000000 0.000000
				0.000000 0.000000 0.000000
				0.000000 0.000000 0.000000
				0.000000 0.000000 0.000000
				0.000000 0.000000 0.000000
				0.000000 0.000000 0.000000
				0.000000 0.000000 0.000000
				0.000000 0.000000 0.000000
				0.000000 0.000000 0.000000
				0.000000 0.000000 0.000000
				0.000000 0.000000 0.000000
				0.000000 0.000000 0.000000
				0.000000 0.000000 0.000000
				0.000000 0.000000 0.000000
				0.000000 0.000000 0.000000
				0.000000 0.000000 0.000000
				0.000000 0.000000 0.000000
				0.000000 0.000000 0.000000
				0.000000 0.000000 0.000000
				0.000000 0.000000 0.000000
				0.000000 0.000000 0.000000
				0.000000 0.000000 0.000000
				0.000000 0.000000 0.000000
				0.000000 0.000000 0.000000
				0.000000 0.000000 0.000000
				0.000000 0.000000 0.000000
				0.000000 0.000000 0.000000
				0.000000 0.000000 0.000000
				0.000000 0.000000 0.000000
				0.000000 0.000000 0.000000
				0.000000 0.000000 0.000000
				0.000000 0.000000 0.000000
				0.000000 0.000000 0.000000
				0.000000 0.000000 0.000000
				0.000000 0.000000 0.000000
				0.000000 0.000000 0.000000
				0.000000 0.000000 0.000000
				0.000000 0.000000 0.000000
				0.000000 0.000000 0.000000
				0.000000 0.000000 0.000000
				0.000000 0.000000 0.000000
				0.000000 0.000000 0.000000
				0.000000 0.000000 0.000000
				0.000000 0.000000 0.000000
				0.000000 0.000000 0.000000
				0.000000 0.000000 0.000000
				0.000000 0.000000 0.000000
				0.000000 0.000000 0.000000
				0.000000 0.000000 0.000000
				0.000000 0.000000 0.000000
				0.000000 0.000000 0.000000
				0.000000 0.000000 0.000000
				0.000000 0.000000 0.000000
				0.000000 0.000000 0.000000
				0.000000 0.000000 0.000000
				0.000000 0.000000 0.000000
				0.000000 0.000000 0.000000
				0.000000 0.000000 0.000000
				0.000000 0.000000 0.000000
				0.000000 0.000000 0.000000
				0.000000 0.000000 0.000000
				0.000000 0.000000 0.000000
				0.000000 0.000000 0.000000
				0.000000 0.000000 0.000000
				0.000000 0.000000 0.000000
				0.000000 0.000000 0.000000
				0.000000 0.000000 0.000000
				</DataArray>
			</PointData>
			<Points>
				<DataArray type="Float32" NumberOfComponents="3" format="ascii">
				-0.012108 0.107797 0.000000
				-0.011803 0.107811 0.003428
				-0.024768 0.110969 0.003608
				-0.025010 0.110958 0.000000
				-0.011796 0.107816 0.000000
				-0.012679 0.117264 0.000000
				-0.012374 0.117279 0.003435
				-0.024768 0.110969 -0.003608
				-0.011803 0.107811 -0.003428
				-0.012374 0.117279 -0.003435
				-0.024517 0.110984 0.005137
				-0.011360 0.107838 0.004872
				-0.022741 0.111092 0.007223
				-0.011931 0.117303 0.004878
				-0.024863 0.112557 0.003609
				-0.025106 0.112546 0.000000
				-0.024613 0.112569 0.005138
				-0.024863 0.112557 -0.003609
				-0.012367 0.117284 0.000000
				-0.022837 0.112675 0.007225
				-0.024517 0.110984 -0.005137
				-0.024613 0.112569 -0.005138
				-0.022741 0.111092 -0.007223
				-0.011360 0.107838 -0.004872
				-0.011931 0.117303 -0.004878
				-0.022837 0.112675 -0.007225
				-0.020338 0.111238 0.009073
				-0.017887 0.111386 0.011871
				-0.015829 0.108878 0.014030
				-0.008723 0.109319 0.008574
				-0.012920 0.111027 0.017833
				-0.009135 0.116147 0.008579
				-0.020433 0.112819 0.009074
				-0.017982 0.112966 0.011872
				-0.016241 0.115702 0.014034
				-0.013095 0.113916 0.017835
				-0.020338 0.111238 -0.009073
				-0.020433 0.112819 -0.009074
				-0.017887 0.111386 -0.011871
				-0.015829 0.108878 -0.014030
				-0.012920 0.111027 -0.017833
				-0.008723 0.109319 -0.008574
				-0.009135 0.116147 -0.008579
				-0.017982 0.112966 -0.011872
				-0.016241 0.115702 -0.014034
				-0.013095 0.113916 -0.017835
				-0.006898 0.110087 0.010978
				-0.011111 0.111797 0.019215
				-0.007230 0.115603 0.010982
				-0.011205 0.113370 0.019216
				-0.011111 0.111797 -0.019215
				-0.006898 0.110087 -0.010978
				-0.011205 0.113370 -0.019216
				-0.007230 0.115603 -0.010982
				-0.005134 0.111510 0.012750
				-0.007614 0.109376 0.023067
				-0.005308 0.114403 0.012752
				-0.008025 0.116193 0.023072
				-0.007614 0.109376 -0.023067
				-0.005134 0.111510 -0.012750
				-0.008025 0.116193 -0.023072
				-0.005308 0.114403 -0.012752
				-0.001763 0.111715 0.014584
				-0.005297 0.109517 0.024502
				-0.001937 0.114607 0.014586
				-0.005708 0.116333 0.024506
				-0.005297 0.109517 -0.024502
				-0.001763 0.111715 -0.014584
				-0.005708 0.116333 -0.024506
				-0.001937 0.114607 -0.014586
				0.004865 0.107648 0.015696
				0.002003 0.105007 0.018507
				0.001004 0.104378 0.020622
				0.004179 0.112740 0.015081
				0.006331 0.108023 0.014636
				0.004084 0.114317 0.015082
				0.001072 0.112542 0.024032
				-0.003164 0.112280 0.025572
				-0.003259 0.113849 0.025573
				0.000995 0.121718 0.018518
				0.004153 0.119454 0.015704
				-0.000071 0.122215 0.020633
				0.005653 0.119264 0.014643
				0.000978 0.114111 0.024033
				0.001004 0.104378 -0.020622
				-0.003164 0.112280 -0.025572
				0.001072 0.112542 -0.024032
				-0.003259 0.113849 -0.025573
				0.002003 0.105007 -0.018507
				0.004865 0.107648 -0.015696
				0.006331 0.108023 -0.014636
				0.004179 0.112740 -0.015081
				0.004084 0.114317 -0.015082
				-0.000071 0.122215 -0.020633
				0.000978 0.114111 -0.024033
				0.004153 0.119454 -0.015704
				0.000995 0.121718 -0.018518
				0.005653 0.119264 -0.014643
				0.008013 0.105784 0.023364
				0.004465 0.104897 0.023401
				0.012135 0.107386 0.022021
				0.008350 0.112998 0.013710
				0.009485 0.109433 0.013784
				0.008255 0.114575 0.013711
				0.014818 0.107922 0.020638
				0.008953 0.118252 0.013790
				0.001199 0.112548 0.025834
				0.001105 0.114116 0.025835
				0.003427 0.122117 0.023412
				0.007055 0.121672 0.023375
				0.011339 0.120589 0.022030
				0.014066 0.120389 0.020647
				0.004465 0.104897 -0.023401
				0.001199 0.112548 -0.025834
				0.001105 0.114116 -0.025835
				0.008013 0.105784 -0.023364
				0.012135 0.107386 -0.022021
				0.009485 0.109433 -0.013784
				0.008350 0.112998 -0.013710
				0.014818 0.107922 -0.020638
				0.008255 0.114575 -0.013711
				0.008953 0.118252 -0.013790
				0.003427 0.122117 -0.023412
				0.007055 0.121672 -0.023375
				0.011339 0.120589 -0.022030
				0.014066 0.120389 -0.020647
				0.008922 0.113022 0.026664
				0.007408 0.112929 0.027745
				0.010773 0.113137 0.026074
				0.015849 0.113450 0.024639
				0.013322 0.113305 0.011057
				0.015909 0.109460 0.011482
				0.013227 0.114885 0.011058
				0.017623 0.107626 0.018707
				0.015333 0.119018 0.011488
				0.016815 0.121031 0.018716
				0.001787 0.112583 0.028079
				0.001693 0.114149 0.028080
				0.007313 0.114495 0.027746
				0.008828 0.114590 0.026665
				0.010678 0.114704 0.026075
				0.015755 0.115019 0.024640
				0.007408 0.112929 -0.027745
				0.008922 0.113022 -0.026664
				0.001787 0.112583 -0.028079
				0.001693 0.114149 -0.028080
				0.007313 0.114495 -0.027746
				0.010773 0.113137 -0.026074
				0.015849 0.113450 -0.024639
				0.015909 0.109460 -0.011482
				0.013322 0.113305 -0.011057
				0.017623 0.107626 -0.018707
				0.013227 0.114885 -0.011058
				0.015333 0.119018 -0.011488
				0.016815 0.121031 -0.018716
				0.008828 0.114590 -0.026665
				0.010678 0.114704 -0.026075
				0.015755 0.115019 -0.024640
				0.007292 0.112920 0.029107
				0.001743 0.112578 0.030853
				0.007198 0.114486 0.029108
				0.021800 0.109731 0.023048
				0.017540 0.109925 0.026251
				0.017010 0.118721 0.026256
				0.015437 0.113436 0.009496
				0.015342 0.115018 0.009497
				0.017777 0.113580 0.009470
				0.018787 0.109126 0.010936
				0.019971 0.107581 0.016962
				0.022062 0.107057 0.015477
				0.023976 0.109368 0.019560
				0.018149 0.119703 0.010943
				0.017682 0.115161 0.009471
				0.019140 0.121367 0.016971
				0.021153 0.122147 0.015487
				0.021214 0.119443 0.023055
				0.023330 0.120078 0.019567
				0.001648 0.114142 0.030854
				0.001743 0.112578 -0.030853
				0.007292 0.112920 -0.029107
				0.007198 0.114486 -0.029108
				0.001648 0.114142 -0.030854
				0.017540 0.109925 -0.026251
				0.021800 0.109731 -0.023048
				0.017010 0.118721 -0.026256
				0.015437 0.113436 -0.009496
				0.018787 0.109126 -0.010936
				0.017777 0.113580 -0.009470
				0.019971 0.107581 -0.016962
				0.022062 0.107057 -0.015477
				0.015342 0.115018 -0.009497
				0.023976 0.109368 -0.019560
				0.017682 0.115161 -0.009471
				0.018149 0.119703 -0.010943
				0.019140 0.121367 -0.016971
				0.021153 0.122147 -0.015487
				0.021214 0.119443 -0.023055
				0.023330 0.120078 -0.019567
				0.007675 0.112943 0.030522
				0.003903 0.112708 0.034233
				0.007581 0.114507 0.030523
				0.003809 0.114269 0.034234
				0.020824 0.110262 0.027203
				0.020310 0.118786 0.027208
				0.019890 0.110552 0.029638
				0.017178 0.110192 0.028281
				0.016683 0.118407 0.028286
				0.019418 0.118378 0.029644
				0.024658 0.108070 0.009189
				0.023850 0.121474 0.009198
				0.021346 0.107969 0.011914
				0.022562 0.107535 0.013811
				0.024895 0.109164 0.017729
				0.025634 0.109441 0.015358
				0.024217 0.120398 0.017736
				0.020550 0.121163 0.011923
				0.021706 0.121738 0.013821
				0.024984 0.120218 0.015365
				0.003903 0.112708 -0.034233
				0.007675 0.112943 -0.030522
				0.003809 0.114269 -0.034234
				0.007581 0.114507 -0.030523
				0.017178 0.110192 -0.028281
				0.019890 0.110552 -0.029638
				0.020824 0.110262 -0.027203
				0.016683 0.118407 -0.028286
				0.020310 0.118786 -0.027208
				0.019418 0.118378 -0.029644
				0.024658 0.108070 -0.009189
				0.021346 0.107969 -0.011914
				0.022562 0.107535 -0.013811
				0.023850 0.121474 -0.009198
				0.024895 0.109164 -0.017729
				0.025634 0.109441 -0.015358
				0.024217 0.120398 -0.017736
				0.020550 0.121163 -0.011923
				0.021706 0.121738 -0.013821
				0.024984 0.120218 -0.015365
				0.010466 0.113113 0.031596
				0.004965 0.112770 0.037165
				0.010371 0.114677 0.031597
				0.004871 0.114329 0.037166
				0.016836 0.113504 0.033119
				0.016173 0.113466 0.029753
				0.016742 0.115066 0.033120
				0.016078 0.115031 0.029754
				0.026047 0.110064 0.008816
				0.028518 0.111529 0.011227
				0.025468 0.119666 0.008822
				0.028097 0.118509 0.011232
				0.004965 0.112770 -0.037165
				0.010466 0.113113 -0.031596
				0.004871 0.114329 -0.037166
				0.010371 0.114677 -0.031597
				0.016173 0.113466 -0.029753
				0.016836 0.113504 -0.033119
				0.016078 0.115031 -0.029754
				0.016742 0.115066 -0.033120
				0.028518 0.111529 -0.011227
				0.026047 0.110064 -0.008816
				0.025468 0.119666 -0.008822
				0.028097 0.118509 -0.011232
				0.006487 0.112862 0.039510
				0.008211 0.112967 0.040882
				0.010925 0.110615 0.040955
				0.014650 0.111223 0.039636
				0.013594 0.113306 0.031042
				0.015852 0.111421 0.035962
				0.013500 0.114870 0.031044
				0.006393 0.114418 0.039511
				0.008117 0.114522 0.040883
				0.010528 0.117189 0.040959
				0.014299 0.117045 0.039640
				0.015515 0.117004 0.035965
				0.026829 0.109982 0.007193
				0.031972 0.111746 0.005930
				0.026234 0.119847 0.007199
				0.031551 0.118729 0.005935
				0.006487 0.112862 -0.039510
				0.006393 0.114418 -0.039511
				0.008211 0.112967 -0.040882
				0.010925 0.110615 -0.040955
				0.014650 0.111223 -0.039636
				0.015852 0.111421 -0.035962
				0.013594 0.113306 -0.031042
				0.013500 0.114870 -0.031044
				0.008117 0.114522 -0.040883
				0.010528 0.117189 -0.040959
				0.014299 0.117045 -0.039640
				0.015515 0.117004 -0.035965
				0.031972 0.111746 -0.005930
				0.026829 0.109982 -0.007193
				0.031551 0.118729 -0.005935
				0.026234 0.119847 -0.007199
				0.032365 0.113088 0.001798
				0.026339 0.111268 0.005583
				0.025902 0.118514 0.005588
				0.032102 0.117455 0.001801
				0.026339 0.111268 -0.005583
				0.032365 0.113088 -0.001798
				0.032102 0.117455 -0.001801
				0.025902 0.118514 -0.005588
				0.025838 0.111897 0.003242
				0.025700 0.113206 0.000000
				0.032430 0.113751 0.000000
				0.032246 0.116808 0.000000
				0.025480 0.117834 0.003246
				0.025500 0.116525 0.000000
				0.025838 0.111897 -0.003242
				0.025480 0.117834 -0.003246
				</DataArray>
			</Points>
			<Polys>
				<DataArray type="Int32" Name="connectivity" format="ascii">
					0 1 2
					0 2 3
					0 3 4
					0 5 6
					0 6 1
					4 3 7
					4 7 8
					4 8 0
					8 9 5
					8 5 0
					1 10 2
					11 12 10
					11 10 1
					1 6 13
					1 13 11
					2 14 15
					2 15 3
					10 16 14
					10 14 2
					3 15 17
					3 17 7
					18 15 14
					18 14 6
					18 6 5
					5 9 17
					5 17 15
					5 15 18
					14 16 6
					6 16 19
					6 19 13
					7 20 8
					7 17 21
					7 21 20
					8 20 22
					8 22 23
					23 24 9
					23 9 8
					9 21 17
					24 25 21
					24 21 9
					12 19 16
					12 16 10
					26 12 11
					27 26 11
					28 27 11
					29 30 28
					29 28 11
					11 13 31
					11 31 29
					26 32 19
					26 19 12
					13 19 32
					13 32 33
					13 33 34
					13 34 35
					13 35 31
					20 21 25
					20 25 22
					23 22 36
					22 25 37
					22 37 36
					23 36 38
					23 38 39
					23 39 40
					23 40 41
					41 42 24
					41 24 23
					37 25 24
					43 37 24
					44 43 24
					42 45 44
					42 44 24
					27 33 32
					27 32 26
					28 34 33
					28 33 27
					30 35 34
					30 34 28
					29 46 47
					29 47 30
					29 31 48
					29 48 46
					47 49 35
					47 35 30
					35 49 48
					35 48 31
					36 37 43
					36 43 38
					38 43 44
					38 44 39
					39 44 45
					39 45 40
					40 50 51
					40 51 41
					40 45 52
					40 52 50
					51 53 42
					51 42 41
					42 53 52
					42 52 45
					46 54 55
					46 55 47
					46 48 56
					46 56 54
					55 57 49
					55 49 47
					49 57 56
					49 56 48
					50 58 59
					50 59 51
					50 52 60
					50 60 58
					59 61 53
					59 53 51
					53 61 60
					53 60 52
					62 63 55
					62 55 54
					54 56 64
					54 64 62
					63 65 57
					63 57 55
					56 57 65
					56 65 64
					59 58 66
					59 66 67
					58 60 68
					58 68 66
					67 69 61
					67 61 59
					69 68 60
					69 60 61
					70 71 62
					71 72 62
					72 63 62
					73 74 70
					73 70 62
					73 62 64
					73 64 75
					76 77 63
					76 63 72
					77 78 65
					77 65 63
					64 79 80
					64 81 79
					64 65 81
					64 80 82
					64 82 75
					81 65 78
					81 78 83
					67 66 84
					84 66 85
					84 85 86
					66 68 87
					66 87 85
					67 88 89
					67 84 88
					67 89 90
					67 90 91
					92 69 67
					92 67 91
					93 68 69
					94 87 68
					94 68 93
					95 96 69
					96 93 69
					92 97 95
					92 95 69
					70 98 99
					70 99 71
					74 100 98
					74 98 70
					99 72 71
					99 76 72
					101 102 74
					101 74 73
					101 73 75
					101 75 103
					102 104 100
					102 100 74
					75 82 105
					75 105 103
					106 77 76
					99 106 76
					106 107 78
					106 78 77
					83 78 107
					79 81 108
					79 108 109
					79 109 80
					80 109 110
					80 110 82
					81 83 108
					82 110 111
					82 111 105
					83 107 108
					88 84 112
					84 86 112
					86 85 113
					85 87 114
					85 114 113
					86 113 112
					114 87 94
					88 112 115
					88 115 89
					89 115 116
					89 116 90
					91 90 117
					91 117 118
					90 116 119
					90 119 117
					120 92 91
					120 91 118
					120 121 97
					120 97 92
					122 93 96
					122 94 93
					122 114 94
					95 123 122
					95 122 96
					97 124 123
					97 123 95
					121 125 124
					121 124 97
					98 126 127
					98 127 99
					100 128 126
					100 126 98
					127 106 99
					104 129 128
					104 128 100
					130 131 102
					130 102 101
					101 103 132
					101 132 130
					131 133 104
					131 104 102
					103 105 134
					103 134 132
					133 129 104
					105 111 135
					105 135 134
					136 106 127
					136 137 107
					136 107 106
					108 107 138
					138 107 137
					108 138 139
					108 139 109
					109 139 140
					109 140 110
					110 140 141
					110 141 111
					111 141 135
					112 113 142
					112 142 143
					112 143 115
					142 113 144
					113 114 145
					113 145 144
					146 114 122
					145 114 146
					115 143 147
					115 147 116
					116 147 148
					116 148 119
					118 117 149
					118 149 150
					117 119 151
					117 151 149
					150 152 120
					150 120 118
					119 148 151
					152 153 121
					152 121 120
					153 154 125
					153 125 121
					123 155 146
					123 146 122
					124 156 155
					124 155 123
					125 157 156
					125 156 124
					154 157 125
					128 140 139
					128 139 126
					126 139 138
					126 138 127
					158 159 136
					158 136 127
					127 138 160
					127 160 158
					129 141 140
					129 140 128
					161 162 129
					161 129 133
					162 163 141
					162 141 129
					164 131 130
					130 132 165
					130 165 164
					166 167 131
					166 131 164
					168 133 131
					167 169 168
					167 168 131
					132 134 165
					168 170 161
					168 161 133
					165 134 171
					165 171 172
					134 135 173
					134 173 174
					134 174 171
					135 141 163
					135 163 175
					135 175 176
					135 176 173
					159 177 137
					159 137 136
					138 137 177
					138 177 160
					142 144 178
					142 178 179
					142 146 155
					142 155 143
					179 180 146
					179 146 142
					143 155 156
					143 156 147
					144 145 181
					144 181 178
					180 181 145
					180 145 146
					147 156 157
					147 157 148
					151 148 182
					151 182 183
					148 157 184
					148 184 182
					150 149 185
					185 149 186
					185 186 187
					149 151 188
					149 188 189
					149 189 186
					185 190 152
					185 152 150
					151 183 191
					151 191 188
					190 153 152
					192 193 153
					192 153 190
					194 154 153
					193 195 194
					193 194 153
					196 184 157
					196 157 154
					194 197 196
					194 196 154
					198 199 159
					198 159 158
					158 160 200
					158 200 198
					199 201 177
					199 177 159
					160 177 201
					160 201 200
					161 202 162
					161 175 203
					161 203 202
					170 176 175
					170 175 161
					162 202 204
					162 204 205
					205 206 163
					205 163 162
					206 207 203
					206 203 163
					163 203 175
					164 165 172
					164 172 166
					208 167 166
					166 172 209
					166 209 208
					208 210 167
					210 211 169
					210 169 167
					169 212 170
					169 170 168
					211 213 212
					211 212 169
					212 214 176
					212 176 170
					172 171 209
					171 215 209
					171 174 216
					171 216 215
					173 176 214
					173 214 174
					174 214 217
					174 217 216
					179 178 218
					179 218 219
					178 181 220
					178 220 218
					219 221 180
					219 180 179
					221 220 181
					221 181 180
					222 223 224
					222 224 182
					182 224 183
					182 184 225
					182 225 222
					224 226 196
					224 196 183
					183 196 197
					183 197 191
					184 226 227
					184 227 225
					196 226 184
					187 192 190
					187 190 185
					187 186 228
					186 229 228
					186 189 230
					186 230 229
					228 231 192
					228 192 187
					188 191 232
					188 232 189
					189 232 233
					189 233 230
					191 197 234
					191 234 232
					231 193 192
					231 235 193
					235 236 195
					235 195 193
					195 234 197
					195 197 194
					236 237 234
					236 234 195
					238 239 199
					238 199 198
					198 200 240
					198 240 238
					239 241 201
					239 201 199
					200 201 241
					200 241 240
					202 203 207
					202 207 204
					205 204 242
					205 242 243
					204 207 244
					204 244 242
					243 245 206
					243 206 205
					245 244 207
					245 207 206
					208 213 211
					208 211 210
					246 247 213
					246 213 208
					208 209 248
					208 248 246
					215 216 217
					215 217 209
					209 217 249
					209 249 248
					213 217 214
					213 214 212
					247 249 217
					247 217 213
					219 218 250
					219 250 251
					218 220 252
					218 252 250
					251 253 221
					251 221 219
					253 252 220
					253 220 221
					254 255 223
					254 223 222
					222 225 256
					222 256 254
					255 257 227
					255 227 223
					223 227 226
					223 226 224
					225 227 257
					225 257 256
					229 230 233
					229 233 228
					228 233 258
					228 258 259
					259 260 231
					259 231 228
					231 237 236
					231 236 235
					260 261 237
					260 237 231
					232 234 237
					232 237 233
					233 237 261
					233 261 258
					262 239 238
					263 262 238
					264 263 238
					265 264 238
					266 267 265
					266 265 238
					238 240 268
					238 268 266
					262 269 241
					262 241 239
					240 241 269
					240 269 270
					240 270 271
					240 271 272
					240 272 273
					240 273 268
					243 242 267
					243 267 266
					242 244 273
					242 273 267
					266 268 245
					266 245 243
					268 273 244
					268 244 245
					274 275 247
					274 247 246
					246 248 276
					246 276 274
					275 277 249
					275 249 247
					248 249 277
					248 277 276
					251 250 278
					250 252 279
					250 279 278
					251 278 280
					251 280 281
					251 281 282
					251 282 283
					251 283 284
					284 285 253
					284 253 251
					279 252 253
					286 279 253
					287 286 253
					288 287 253
					285 289 288