<?xml version="1.0"?>
<VTKFile type="PolyData" version="0.1" byte_order="LittleEndian" compressor="vtkZLibDataCompressor">
	<PolyData>
		<Piece NumberOfPoints="142" NumberOfVerts="0" NumberOfLines="0" NumberOfStrips="0" NumberOfPolys="288">
			<PointData Normals="Normals">
				<DataArray type="Float32" Name="Normals" NumberOfComponents="3" format="ascii">
				0.000000 0.000000 0.000000
				0.000000 0.000000 0.000000
				0.000000 0.000000 0.000000
				0.000000 0.000000 0.000000
				0.000000 0.000000 0.000000
				0.000000 0.000000 0.000000
				0.000000 0.000000 0.000000
				0.000000 0.000000 0.000000
				0.000000 0.000000 0.000000
				0.000000 0.000000 0.000000
				0.000000 0.000000 0.000000
				0.000000 0.000000 0.000000
				0.000000 0.000000 0.000000
				0.000000 0.000000 0.000000
				0.000000 0.000000 0.000000
				0.000000 0.000000 0.000000
				0.000000 0.000000 0.000000
				0.000000 0.000000 0.000000
				0.000000 0.000000 0.000000
				0.000000 0.000000 0.000000
				0.000000 0.000000 0.000000
				0.000000 0.000000 0.000000
				0.000000 0.000000 0.000000
				0.000000 0.000000 0.000000
				0.000000 0.000000 0.000000
				0.000000 0.000000 0.000000
				0.000000 0.000000 0.000000
				0.000000 0.000000 0.000000
				0.000000 0.000000 0.000000
				0.000000 0.000000 0.000000
				0.000000 0.000000 0.000000
				0.000000 0.000000 0.000000
				0.000000 0.000000 0.000000
				0.000000 0.000000 0.000000
				0.000000 0.000000 0.000000
				0.000000 0.000000 0.000000
				0.000000 0.000000 0.000000
				0.000000 0.000000 0.000000
				0.000000 0.000000 0.000000
				0.000000 0.000000 0.000000
				0.000000 0.000000 0.000000
				0.000000 0.000000 0.000000
				0.000000 0.000000 0.000000
				0.000000 0.000000 0.000000
				0.000000 0.000000 0.000000
				0.000000 0.000000 0.000000
				0.000000 0.000000 0.000000
				0.000000 0.000000 0.000000
				0.000000 0.000000 0.000000
				0.000000 0.000000 0.000000
				0.000000 0.000000 0.000000
				0.000000 0.000000 0.000000
				0.000000 0.000000 0.000000
				0.000000 0.000000 0.000000
				0.000000 0.000000 0.000000
				0.000000 0.000000 0.000000
				0.000000 0.000000 0.000000
				0.000000 0.000000 0.000000
				0.000000 0.000000 0.000000
				0.000000 0.000000 0.000000
				0.000000 0.000000 0.000000
				0.000000 0.000000 0.000000
				0.000000 0.000000 0.000000
				0.000000 0.000000 0.000000
				0.000000 0.000000 0.000000
				0.000000 0.000000 0.000000
				0.000000 0.000000 0.000000
				0.000000 0.000000 0.000000
				0.000000 0.000000 0.000000
				0.000000 0.000000 0.000000
				0.000000 0.000000 0.000000
				0.000000 0.000000 0.000000
				0.000000 0.000000 0.000000
				0.000000 0.000000 0.000000
				0.000000 0.000000 0.000000
				0.000000 0.000000 0.000000
				0.000000 0.000000 0.000000
				0.000000 0.000000 0.000000
				0.000000 0.000000 0.000000
				0.000000 0.000000 0.000000
				0.000000 0.000000 0.000000
				0.000000 0.000000 0.000000
				0.000000 0.000000 0.000000
				0.000000 0.000000 0.000000
				0.000000 0.000000 0.000000
				0.000000 0.000000 0.000000
				0.000000 0.000000 0.000000
				0.000000 0.000000 0.000000
				0.000000 0.000000 0.000000
				0.000000 0.000000 0.000000
				0.000000 0.000000 0.000000
				0.000000 0.000000 0.000000
				0.000000 0.000000 0.000000
				0.000000 0.000000 0.000000
				0.000000 0.000000 0.000000
				0.000000 0.000000 0.000000
				0.000000 0.000000 0.000000
				0.000000 0.000000 0.000000
				0.000000 0.000000 0.000000
				0.000000 0.000000 0.000000
				0.000000 0.000000 0.000000
				0.000000 0.000000 0.000000
				0.000000 0.000000 0.000000
				0.000000 0.000000 0.000000
				0.000000 0.000000 0.000000
				0.000000 0.000000 0.000000
				0.000000 0.000000 0.000000
				0.000000 0.000000 0.000000
				0.000000 0.000000 0.000000
				0.000000 0.000000 0.000000
				0.000000 0.000000 0.000000
				0.000000 0.000000 0.000000
				0.000000 0.000000 0.000000
				0.000000 0.000000 0.000000
				0.000000 0.000000 0.000000
				0.000000 0.000000 0.000000
				0.000000 0.000000 0.000000
				0.000000 0.000000 0.000000
				0.000000 0.000000 0.000000
				0.000000 0.000000 0.000000
				0.000000 0.000000 0.000000
				0.000000 0.000000 0.000000
				0.000000 0.000000 0.000000
				0.000000 0.000000 0.000000
				0.000000 0.000000 0.000000
				0.000000 0.000000 0.000000
				0.000000 0.000000 0.000000
				0.000000 0.000000 0.000000
				0.000000 0.000000 0.000000
				0.000000 0.000000 0.000000
				0.000000 0.000000 0.000000
				0.000000 0.000000 0.000000
				0.000000 0.000000 0.000000
				0.000000 0.000000 0.000000
				0.000000 0.000000 0.000000
				0.000000 0.000000 0.000000
				0.000000 0.000000 0.000000
				0.000000 0.000000 0.000000
				0.000000 0.000000 0.000000
				0.000000 0.000000 0.000000
				0.000000 0.000000 0.000000
				0.000000 0.000000 0.000000
				</DataArray>
			</PointData>
			<Points>
				<DataArray type="Float32" NumberOfComponents="3" format="ascii">
				-0.009926 0.070241 0.000140
				-0.002164 0.077119 0.000140
				-0.001523 0.077218 -0.003896
				-0.010889 0.070235 0.000140
				-0.001523 0.077218 0.004177
				-0.007261 0.062087 -0.001978
				-0.002405 0.076466 -0.001385
				-0.007262 0.062085 0.000140
				-0.002405 0.076466 0.001665
				-0.007260 0.062087 0.002258
				0.003862 0.079788 -0.011364
				-0.002485 0.077262 -0.004624
				-0.005137 0.071895 -0.011012
				-0.012932 0.065918 -0.004913
				-0.018704 0.065640 -0.003498
				-0.024271 0.066486 -0.003289
				-0.024084 0.068521 0.000140
				-0.024271 0.066486 0.003569
				-0.018704 0.065640 0.003778
				-0.012932 0.065918 0.005193
				-0.005137 0.071895 0.011293
				0.003862 0.079788 0.011645
				-0.002485 0.077262 0.004904
				-0.001061 0.066525 -0.009172
				-0.013489 0.061373 -0.006226
				-0.007670 0.064643 -0.011435
				-0.013494 0.061367 0.000140
				-0.013489 0.061373 0.006506
				-0.001061 0.066525 0.009452
				-0.007670 0.064643 0.011716
				0.007746 0.073911 -0.011438
				0.006644 0.075548 -0.012801
				0.001621 0.075795 -0.021334
				-0.016062 0.061648 -0.005362
				-0.022629 0.059626 -0.005214
				-0.026677 0.058314 -0.005077
				-0.030488 0.064064 -0.004023
				-0.029302 0.068234 0.000140
				-0.030488 0.064064 0.004304
				-0.026677 0.058314 0.005357
				-0.022629 0.059626 0.005494
				-0.016062 0.061648 0.005642
				0.001621 0.075795 0.021614
				0.006644 0.075548 0.013081
				0.007746 0.073911 0.011718
				0.010776 0.067748 -0.010190
				0.006941 0.062817 -0.009160
				0.009961 0.073705 -0.019971
				-0.005162 0.065294 -0.021518
				-0.016066 0.061643 0.000140
				-0.001803 0.070917 -0.022931
				-0.006262 0.065164 -0.016221
				0.010776 0.067748 0.010470
				0.006941 0.062817 0.009440
				0.009961 0.073705 0.020251
				-0.005162 0.065294 0.021798
				-0.001803 0.070917 0.023211
				-0.006262 0.065164 0.016501
				0.013381 0.077579 -0.009222
				0.013550 0.078983 -0.010242
				0.010939 0.074487 -0.012255
				0.012362 0.074696 -0.015519
				0.008837 0.077967 -0.017592
				0.004378 0.074078 -0.023228
				0.011895 0.079819 -0.022017
				-0.022633 0.059621 0.000140
				-0.026681 0.058310 0.000140
				-0.030901 0.060894 -0.003925
				-0.030901 0.060894 0.004205
				0.004258 0.076528 0.024080
				0.011895 0.079819 0.022264
				0.008837 0.077967 0.017872
				0.010939 0.074487 0.012535
				0.012362 0.074696 0.015799
				0.013550 0.078983 0.010523
				0.013381 0.077579 0.009502
				0.008112 0.061516 -0.003823
				0.026593 0.057355 -0.007964
				0.023738 0.059194 -0.013986
				0.020149 0.060126 -0.015622
				0.017478 0.065887 -0.017152
				0.012266 0.071879 -0.017037
				0.009770 0.078020 -0.023925
				0.010151 0.070953 -0.022826
				0.011286 0.075608 -0.026025
				0.008658 0.067573 -0.027959
				0.011823 0.066864 -0.026899
				0.015339 0.071299 -0.018225
				0.015649 0.070255 -0.021903
				0.014787 0.065655 -0.024499
				0.016989 0.068307 -0.021155
				0.006300 0.072929 -0.026208
				0.008112 0.061516 0.004103
				0.023738 0.059194 0.014267
				0.026593 0.057355 0.008245
				0.020149 0.060126 0.015902
				0.017478 0.065887 0.017432
				0.012266 0.071879 0.017317
				0.009770 0.078020 0.024172
				0.011286 0.075608 0.026271
				0.010033 0.073375 0.023668
				0.008658 0.067573 0.028205
				0.011823 0.066864 0.027164
				0.015649 0.070255 0.022183
				0.015339 0.071299 0.018505
				0.016989 0.068307 0.021436
				0.014787 0.065655 0.024764
				0.006300 0.072929 0.026474
				0.016134 0.081252 -0.010875
				0.015738 0.076305 -0.004810
				0.017400 0.080090 -0.013358
				0.014722 0.076175 -0.002229
				0.007997 0.060829 0.000140
				0.016366 0.079412 -0.014648
				0.016366 0.079412 0.014928
				0.017400 0.080090 0.013639
				0.016134 0.081252 0.011156
				0.015738 0.076305 0.005090
				0.014722 0.076175 0.002509
				0.027878 0.057185 -0.002017
				0.027879 0.057334 0.000140
				0.028656 0.071200 -0.007018
				0.025563 0.072889 -0.010930
				0.023436 0.074652 -0.012437
				0.019344 0.072499 -0.016098
				0.017145 0.069631 -0.021709
				0.013024 0.069869 -0.023513
				0.011090 0.068389 -0.027407
				0.014720 0.066942 -0.023683
				0.027878 0.057185 0.002297
				0.028656 0.071200 0.007298
				0.025563 0.072889 0.011210
				0.023436 0.074652 0.012717
				0.019344 0.072499 0.016378
				0.017145 0.069631 0.021989
				0.013082 0.068672 0.023096
				0.011090 0.068389 0.027653
				0.014720 0.066942 0.023949
				0.019388 0.078675 -0.012525
				0.017272 0.074726 0.000140
				0.029534 0.070948 0.000140
				0.019388 0.078675 0.012805
				</DataArray>
			</Points>
			<Polys>
				<DataArray type="Int32" Name="connectivity" format="ascii">
					0 1 2
					2 3 0
					4 1 0
					0 3 4
					5 6 1
					7 5 1
					1 6 2
					1 8 9
					1 9 7
					4 8 1
					10 2 6
					10 11 2
					2 12 13
					2 13 3
					12 2 11
					3 14 15
					3 15 16
					13 14 3
					16 17 18
					16 18 3
					3 18 19
					3 19 20
					3 20 4
					8 4 21
					4 22 21
					22 4 20
					23 6 5
					23 5 24
					23 24 25
					24 5 7
					24 7 26
					10 6 23
					26 7 9
					26 9 27
					28 8 21
					9 8 28
					29 27 9
					29 9 28
					30 31 10
					30 10 23
					10 32 12
					10 12 11
					10 31 32
					13 12 24
					13 24 33
					12 25 24
					12 32 25
					14 13 33
					14 33 34
					14 34 35
					15 14 35
					16 15 36
					16 36 37
					35 36 15
					37 38 17
					37 17 16
					39 18 17
					17 38 39
					39 40 18
					40 41 19
					40 19 18
					41 27 20
					41 20 19
					22 20 42
					22 42 21
					27 29 20
					29 42 20
					28 21 43
					28 43 44
					42 43 21
					30 23 45
					45 23 46
					47 46 23
					47 23 25
					47 25 48
					49 33 24
					49 24 26
					25 32 50
					25 50 51
					25 51 48
					26 27 41
					26 41 49
					52 28 44
					53 28 52
					28 53 54
					55 29 28
					55 28 54
					56 42 29
					57 56 29
					55 57 29
					58 59 30
					58 30 45
					59 60 30
					60 31 30
					61 62 31
					61 31 60
					62 32 31
					32 63 50
					32 62 64
					32 64 63
					65 34 33
					65 33 49
					66 35 34
					66 34 65
					66 37 35
					67 35 37
					67 36 35
					36 67 37
					39 37 66
					37 68 38
					37 39 68
					39 38 68
					65 40 39
					65 39 66
					49 41 40
					49 40 65
					56 69 42
					69 70 71
					69 71 42
					43 42 71
					72 43 71
					72 71 73
					44 43 72
					52 44 74
					52 74 75
					44 72 74
					58 45 46
					58 46 76
					77 76 46
					77 46 78
					78 46 79
					79 46 80
					46 47 80
					81 47 62
					81 62 61
					47 64 62
					47 82 64
					47 83 84
					47 84 82
					47 48 85
					47 85 86
					83 47 87
					83 87 88
					47 81 87
					89 90 47
					90 80 47
					47 86 89
					51 50 48
					50 91 48
					91 85 48
					63 91 50
					53 52 75
					92 53 75
					93 53 92
					93 92 94
					95 53 93
					96 53 95
					96 54 53
					73 71 54
					73 54 97
					71 70 54
					70 98 54
					98 99 100
					98 100 54
					101 55 54
					102 101 54
					103 104 54
					103 54 100
					104 97 54
					54 105 106
					54 96 105
					106 102 54
					55 56 57
					55 107 56
					55 101 107
					56 107 69
					108 58 109
					110 59 58
					110 58 108
					109 58 111
					111 58 76
					111 76 112
					110 113 60
					110 60 59
					113 61 60
					81 61 113
					82 63 64
					91 63 82
					70 69 98
					98 69 107
					74 72 114
					74 114 115
					72 73 114
					114 73 97
					116 75 74
					116 74 115
					117 75 116
					118 75 117
					112 92 75
					112 75 118
					76 77 119
					76 119 120
					76 120 112
					77 121 119
					78 122 121
					78 121 77
					79 122 78
					80 123 122
					80 122 79
					80 124 123
					80 90 125
					80 125 124
					87 81 113
					82 84 91
					126 84 83
					126 83 88
					84 127 91
					126 127 84
					91 127 85
					86 85 127
					89 86 127
					89 127 128
					125 88 87
					125 87 124
					124 87 113
					128 126 88
					128 88 125
					90 89 128
					90 128 125
					112 120 129
					112 129 94
					112 94 92
					94 130 131
					94 131 93
					93 131 95
					129 130 94
					95 131 132
					95 132 96
					132 133 96
					133 134 105
					133 105 96
					114 97 104
					107 99 98
					100 99 135
					107 136 99
					99 136 135
					103 100 135
					101 136 107
					136 101 102
					137 136 102
					137 102 106
					133 104 103
					133 103 134
					134 103 135
					134 135 137
					114 104 133
					134 137 106
					134 106 105
					123 138 108
					123 108 109
					138 110 108
					123 109 122
					122 109 121
					109 139 140
					109 140 121
					109 111 139
					124 113 110
					124 110 138
					139 111 112
					112 118 139
					141 115 114
					141 114 133
					116 115 141
					117 116 141
					117 141 132
					131 117 132
					130 117 131
					130 140 139
					130 139 117
					139 118 117
					121 140 120
					121 120 119
					129 120 140
					129 140 130
					123 124 138
					127 126 128
					141 133 132
					137 135 136
				</DataArray>
				<DataArray type="Int32" Name="offsets" format="ascii">
					3 6 9 12 15 18 21 24 27 30 33 36 39 42 45 48 51 54 57 60 63 66 69 72 75 78 81 84 87 90 93 96 99 102 105 108 111 114 117 120 123 126 129 132 135 138 141 144 147 150 153 156 159 162 165 168 171 174 177 180 183 186 189 192 195 198 201 204 207 210 213 216 219 222 225 228 231 234 237 240 243 246 249 252 255 258 261 264 267 270 273 276 279 282 285 288 291 294 297 300 303 306 309 312 315 318 321 324 327 330 333 336 339 342 345 348 351 354 357 360 363 366 369 372 375 378 381 384 387 390 393 396 399 402 405 408 411 414 417 420 423 426 429 432 435 438 441 444 447 450 453 456 459 462 465 468 471 474 477 480 483 486 489 492 495 498 501 504 507 510 513 516 519 522 525 528 531 534 537 540 543 546 549 552 555 558 561 564 567 570 573 576 579 582 585 588 591 594 597 600 603 606 609 612 615 618 621 624 627 630 633 636 639 642 645 648 651 654 657 660 663 666 669 672 675 678 681 684 687 690 693 696 699 702 705 708 711 714 717 720 723 726 729 732 735 738 741 744 747 750 753 756 759 762 765 768 771 774 777 780 783 786 789 792 795 798 801 804 807 810 813 816 819 822 825 828 831 834 837 840 843 846 849 852 855 858 861 864
				</DataArray>
			</Polys>
		</Piece>
	</PolyData>
</VTKFile>
