<?xml version="1.0"?>
<VTKFile type="PolyData" version="0.1" byte_order="LittleEndian" compressor="vtkZLibDataCompressor">
	<PolyData>
		<Piece NumberOfPoints="21" NumberOfVerts="0" NumberOfLines="0" NumberOfStrips="0" NumberOfPolys="38">
			<PointData Normals="Normals">
				<DataArray type="Float32" Name="Normals" NumberOfComponents="3" format="ascii">
				0.000000 0.000000 0.000000
				0.000000 0.000000 0.000000
				0.000000 0.000000 0.000000
				0.000000 0.000000 0.000000
				0.000000 0.000000 0.000000
				0.000000 0.000000 0.000000
				0.000000 0.000000 0.000000
				0.000000 0.000000 0.000000
				0.000000 0.000000 0.000000
				0.000000 0.000000 0.000000
				0.000000 0.000000 0.000000
				0.000000 0.000000 0.000000
				0.000000 0.000000 0.000000
				0.000000 0.000000 0.000000
				0.000000 0.000000 0.000000
				0.000000 0.000000 0.000000
				0.000000 0.000000 0.000000
				0.000000 0.000000 0.000000
				0.000000 0.000000 0.000000
				0.000000 0.000000 0.000000
				0.000000 0.000000 0.000000
				</DataArray>
			</PointData>
			<Points>
				<DataArray type="Float32" NumberOfComponents="3" format="ascii">
				0.500000 0.000000 0.000000
				-0.500000 0.500000 0.000000
				-0.500000 0.475528 0.154509
				-0.500000 0.404509 0.293893
				-0.500000 0.293893 0.404509
				-0.500000 0.154509 0.475528
				-0.500000 -0.000000 0.500000
				-0.500000 -0.154509 0.475528
				-0.500000 -0.293893 0.404509
				-0.500000 -0.404509 0.293893
				-0.500000 -0.475528 0.154509
				-0.500000 -0.500000 -0.000000
				-0.500000 -0.475528 -0.154509
				-0.500000 -0.404509 -0.293893
				-0.500000 -0.293893 -0.404509
				-0.500000 -0.154509 -0.475528
				-0.500000 0.000000 -0.500000
				-0.500000 0.154509 -0.475528
				-0.500000 0.293893 -0.404509
				-0.500000 0.404509 -0.293893
				-0.500000 0.475528 -0.154509
				</DataArray>
			</Points>
			<Polys>
				<DataArray type="Int32" Name="connectivity" format="ascii">
					20 19 18
					20 18 17
					20 17 16
					20 16 15
					20 15 14
					20 14 13
					20 13 12
					20 12 11
					20 11 10
					20 10 9
					20 9 8
					20 8 7
					20 7 6
					20 6 5
					20 5 4
					20 4 3
					20 3 2
					20 2 1
					0 1 2
					0 2 3
					0 3 4
					0 4 5
					0 5 6
					0 6 7
					0 7 8
					0 8 9
					0 9 10
					0 10 11
					0 11 12
					0 12 13
					0 13 14
					0 14 15
					0 15 16
					0 16 17
					0 17 18
					0 18 19
					0 19 20
					0 20 1
				</DataArray>
				<DataArray type="Int32" Name="offsets" format="ascii">
					3 6 9 12 15 18 21 24 27 30 33 36 39 42 45 48 51 54 57 60 63 66 69 72 75 78 81 84 87 90 93 96 99 102 105 108 111 114
				</DataArray>
			</Polys>
		</Piece>
	</PolyData>
</VTKFile>
