<?xml version="1.0"?>
<VTKFile type="PolyData" version="0.1" byte_order="LittleEndian" compressor="vtkZLibDataCompressor">
	<PolyData>
		<Piece NumberOfPoints="63" NumberOfVerts="0" NumberOfLines="0" NumberOfStrips="0" NumberOfPolys="106">
			<PointData Normals="Normals">
				<DataArray type="Float32" Name="Normals" NumberOfComponents="3" format="ascii">
				0.000000 0.000000 0.000000
				0.000000 0.000000 0.000000
				0.000000 0.000000 0.000000
				0.000000 0.000000 0.000000
				0.000000 0.000000 0.000000
				0.000000 0.000000 0.000000
				0.000000 0.000000 0.000000
				0.000000 0.000000 0.000000
				0.000000 0.000000 0.000000
				0.000000 0.000000 0.000000
				0.000000 0.000000 0.000000
				0.000000 0.000000 0.000000
				0.000000 0.000000 0.000000
				0.000000 0.000000 0.000000
				0.000000 0.000000 0.000000
				0.000000 0.000000 0.000000
				0.000000 0.000000 0.000000
				0.000000 0.000000 0.000000
				0.000000 0.000000 0.000000
				0.000000 0.000000 0.000000
				0.000000 0.000000 0.000000
				0.000000 0.000000 0.000000
				0.000000 0.000000 0.000000
				0.000000 0.000000 0.000000
				0.000000 0.000000 0.000000
				0.000000 0.000000 0.000000
				0.000000 0.000000 0.000000
				0.000000 0.000000 0.000000
				0.000000 0.000000 0.000000
				0.000000 0.000000 0.000000
				0.000000 0.000000 0.000000
				0.000000 0.000000 0.000000
				0.000000 0.000000 0.000000
				0.000000 0.000000 0.000000
				0.000000 0.000000 0.000000
				0.000000 0.000000 0.000000
				0.000000 0.000000 0.000000
				0.000000 0.000000 0.000000
				0.000000 0.000000 0.000000
				0.000000 0.000000 0.000000
				0.000000 0.000000 0.000000
				0.000000 0.000000 0.000000
				0.000000 0.000000 0.000000
				0.000000 0.000000 0.000000
				0.000000 0.000000 0.000000
				0.000000 0.000000 0.000000
				0.000000 0.000000 0.000000
				0.000000 0.000000 0.000000
				0.000000 0.000000 0.000000
				0.000000 0.000000 0.000000
				0.000000 0.000000 0.000000
				0.000000 0.000000 0.000000
				0.000000 0.000000 0.000000
				0.000000 0.000000 0.000000
				0.000000 0.000000 0.000000
				0.000000 0.000000 0.000000
				0.000000 0.000000 0.000000
				0.000000 0.000000 0.000000
				0.000000 0.000000 0.000000
				0.000000 0.000000 0.000000
				0.000000 0.000000 0.000000
				0.000000 0.000000 0.000000
				0.000000 0.000000 0.000000
				</DataArray>
			</PointData>
			<Points>
				<DataArray type="Float32" NumberOfComponents="3" format="ascii">
				0.020000 0.500000 0.000000
				0.020000 0.000000 0.000000
				-0.010000 0.500000 -0.017321
				-0.010000 0.000000 -0.017321
				-0.010000 0.500000 0.017321
				-0.010000 0.000000 0.017321
				0.020000 0.500000 0.000000
				-0.010000 0.500000 -0.017321
				-0.010000 0.500000 0.017321
				-0.010000 0.000000 0.017321
				-0.010000 0.000000 -0.017321
				0.020000 0.000000 0.000000
				0.133300 0.000000 0.000000
				-0.066700 -0.100000 0.000000
				-0.066700 -0.099211 -0.012533
				-0.066700 -0.096858 -0.024869
				-0.066700 -0.092978 -0.036812
				-0.066700 -0.087631 -0.048175
				-0.066700 -0.080902 -0.058779
				-0.066700 -0.072897 -0.068455
				-0.066700 -0.063742 -0.077051
				-0.066700 -0.053583 -0.084433
				-0.066700 -0.042578 -0.090483
				-0.066700 -0.030902 -0.095106
				-0.066700 -0.018738 -0.098229
				-0.066700 -0.006279 -0.099803
				-0.066700 0.006279 -0.099803
				-0.066700 0.018738 -0.098229
				-0.066700 0.030902 -0.095106
				-0.066700 0.042578 -0.090483
				-0.066700 0.053583 -0.084433
				-0.066700 0.063742 -0.077051
				-0.066700 0.072897 -0.068455
				-0.066700 0.080902 -0.058779
				-0.066700 0.087631 -0.048175
				-0.066700 0.092978 -0.036812
				-0.066700 0.096858 -0.024869
				-0.066700 0.099211 -0.012533
				-0.066700 0.100000 0.000000
				-0.066700 0.099211 0.012533
				-0.066700 0.096858 0.024869
				-0.066700 0.092978 0.036812
				-0.066700 0.087631 0.048175
				-0.066700 0.080902 0.058779
				-0.066700 0.072897 0.068455
				-0.066700 0.063742 0.077051
				-0.066700 0.053583 0.084433
				-0.066700 0.042578 0.090483
				-0.066700 0.030902 0.095106
				-0.066700 0.018738 0.098229
				-0.066700 0.006279 0.099803
				-0.066700 -0.006279 0.099803
				-0.066700 -0.018738 0.098229
				-0.066700 -0.030902 0.095106
				-0.066700 -0.042578 0.090483
				-0.066700 -0.053583 0.084433
				-0.066700 -0.063742 0.077051
				-0.066700 -0.072897 0.068455
				-0.066700 -0.080902 0.058779
				-0.066700 -0.087631 0.048175
				-0.066700 -0.092978 0.036812
				-0.066700 -0.096858 0.024869
				-0.066700 -0.099211 0.012533
				</DataArray>
			</Points>
			<Polys>
				<DataArray type="Int32" Name="connectivity" format="ascii">
					0 1 3
					0 3 2
					2 3 5
					2 5 4
					4 5 1
					4 1 0
					6 7 8
					9 10 11
					62 61 60
					62 60 59
					62 59 58
					62 58 57
					62 57 56
					62 56 55
					62 55 54
					62 54 53
					62 53 52
					62 52 51
					62 51 50
					62 50 49
					62 49 48
					62 48 47
					62 47 46
					62 46 45
					62 45 44
					62 44 43
					62 43 42
					62 42 41
					62 41 40
					62 40 39
					62 39 38
					62 38 37
					62 37 36
					62 36 35
					62 35 34
					62 34 33
					62 33 32
					62 32 31
					62 31 30
					62 30 29
					62 29 28
					62 28 27
					62 27 26
					62 26 25
					62 25 24
					62 24 23
					62 23 22
					62 22 21
					62 21 20
					62 20 19
					62 19 18
					62 18 17
					62 17 16
					62 16 15
					62 15 14
					62 14 13
					12 13 14
					12 14 15
					12 15 16
					12 16 17
					12 17 18
					12 18 19
					12 19 20
					12 20 21
					12 21 22
					12 22 23
					12 23 24
					12 24 25
					12 25 26
					12 26 27
					12 27 28
					12 28 29
					12 29 30
					12 30 31
					12 31 32
					12 32 33
					12 33 34
					12 34 35
					12 35 36
					12 36 37
					12 37 38
					12 38 39
					12 39 40
					12 40 41
					12 41 42
					12 42 43
					12 43 44
					12 44 45
					12 45 46
					12 46 47
					12 47 48
					12 48 49
					12 49 50
					12 50 51
					12 51 52
					12 52 53
					12 53 54
					12 54 55
					12 55 56
					12 56 57
					12 57 58
					12 58 59
					12 59 60
					12 60 61
					12 61 62
					12 62 13
				</DataArray>
				<DataArray type="Int32" Name="offsets" format="ascii">
					3 6 9 12 15 18 21 24 27 30 33 36 39 42 45 48 51 54 57 60 63 66 69 72 75 78 81 84 87 90 93 96 99 102 105 108 111 114 117 120 123 126 129 132 135 138 141 144 147 150 153 156 159 162 165 168 171 174 177 180 183 186 189 192 195 198 201 204 207 210 213 216 219 222 225 228 231 234 237 240 243 246 249 252 255 258 261 264 267 270 273 276 279 282 285 288 291 294 297 300 303 306 309 312 315 318
				</DataArray>
			</Polys>
		</Piece>
	</PolyData>
</VTKFile>
