<?xml version="1.0"?>
<VTKFile type="PolyData" version="0.1" byte_order="LittleEndian" compressor="vtkZLibDataCompressor">
	<PolyData>
		<Piece NumberOfPoints="80" NumberOfVerts="0" NumberOfLines="0" NumberOfStrips="0" NumberOfPolys="76">
			<PointData Normals="Normals">
				<DataArray type="Float32" Name="Normals" NumberOfComponents="3" format="ascii">
				0.000000 0.000000 0.000000
				0.000000 0.000000 0.000000
				0.000000 0.000000 0.000000
				0.000000 0.000000 0.000000
				0.000000 0.000000 0.000000
				0.000000 0.000000 0.000000
				0.000000 0.000000 0.000000
				0.000000 0.000000 0.000000
				0.000000 0.000000 0.000000
				0.000000 0.000000 0.000000
				0.000000 0.000000 0.000000
				0.000000 0.000000 0.000000
				0.000000 0.000000 0.000000
				0.000000 0.000000 0.000000
				0.000000 0.000000 0.000000
				0.000000 0.000000 0.000000
				0.000000 0.000000 0.000000
				0.000000 0.000000 0.000000
				0.000000 0.000000 0.000000
				0.000000 0.000000 0.000000
				0.000000 0.000000 0.000000
				0.000000 0.000000 0.000000
				0.000000 0.000000 0.000000
				0.000000 0.000000 0.000000
				0.000000 0.000000 0.000000
				0.000000 0.000000 0.000000
				0.000000 0.000000 0.000000
				0.000000 0.000000 0.000000
				0.000000 0.000000 0.000000
				0.000000 0.000000 0.000000
				0.000000 0.000000 0.000000
				0.000000 0.000000 0.000000
				0.000000 0.000000 0.000000
				0.000000 0.000000 0.000000
				0.000000 0.000000 0.000000
				0.000000 0.000000 0.000000
				0.000000 0.000000 0.000000
				0.000000 0.000000 0.000000
				0.000000 0.000000 0.000000
				0.000000 0.000000 0.000000
				0.000000 0.000000 0.000000
				0.000000 0.000000 0.000000
				0.000000 0.000000 0.000000
				0.000000 0.000000 0.000000
				0.000000 0.000000 0.000000
				0.000000 0.000000 0.000000
				0.000000 0.000000 0.000000
				0.000000 0.000000 0.000000
				0.000000 0.000000 0.000000
				0.000000 0.000000 0.000000
				0.000000 0.000000 0.000000
				0.000000 0.000000 0.000000
				0.000000 0.000000 0.000000
				0.000000 0.000000 0.000000
				0.000000 0.000000 0.000000
				0.000000 0.000000 0.000000
				0.000000 0.000000 0.000000
				0.000000 0.000000 0.000000
				0.000000 0.000000 0.000000
				0.000000 0.000000 0.000000
				0.000000 0.000000 0.000000
				0.000000 0.000000 0.000000
				0.000000 0.000000 0.000000
				0.000000 0.000000 0.000000
				0.000000 0.000000 0.000000
				0.000000 0.000000 0.000000
				0.000000 0.000000 0.000000
				0.000000 0.000000 0.000000
				0.000000 0.000000 0.000000
				0.000000 0.000000 0.000000
				0.000000 0.000000 0.000000
				0.000000 0.000000 0.000000
				0.000000 0.000000 0.000000
				0.000000 0.000000 0.000000
				0.000000 0.000000 0.000000
				0.000000 0.000000 0.000000
				0.000000 0.000000 0.000000
				0.000000 0.000000 0.000000
				0.000000 0.000000 0.000000
				0.000000 0.000000 0.000000
				</DataArray>
			</PointData>
			<Points>
				<DataArray type="Float32" NumberOfComponents="3" format="ascii">
				0.500000 0.500000 0.000000
				0.500000 -0.500000 0.000000
				0.475528 0.500000 -0.154509
				0.475528 -0.500000 -0.154509
				0.404509 0.500000 -0.293893
				0.404509 -0.500000 -0.293893
				0.293893 0.500000 -0.404509
				0.293893 -0.500000 -0.404509
				0.154509 0.500000 -0.475528
				0.154509 -0.500000 -0.475528
				-0.000000 0.500000 -0.500000
				-0.000000 -0.500000 -0.500000
				-0.154509 0.500000 -0.475528
				-0.154509 -0.500000 -0.475528
				-0.293893 0.500000 -0.404509
				-0.293893 -0.500000 -0.404509
				-0.404509 0.500000 -0.293893
				-0.404509 -0.500000 -0.293893
				-0.475528 0.500000 -0.154509
				-0.475528 -0.500000 -0.154509
				-0.500000 0.500000 0.000000
				-0.500000 -0.500000 0.000000
				-0.475528 0.500000 0.154509
				-0.475528 -0.500000 0.154509
				-0.404509 0.500000 0.293893
				-0.404509 -0.500000 0.293893
				-0.293893 0.500000 0.404509
				-0.293893 -0.500000 0.404509
				-0.154509 0.500000 0.475528
				-0.154509 -0.500000 0.475528
				0.000000 0.500000 0.500000
				0.000000 -0.500000 0.500000
				0.154509 0.500000 0.475528
				0.154509 -0.500000 0.475528
				0.293893 0.500000 0.404509
				0.293893 -0.500000 0.404509
				0.404509 0.500000 0.293893
				0.404509 -0.500000 0.293893
				0.475528 0.500000 0.154509
				0.475528 -0.500000 0.154509
				0.500000 0.500000 0.000000
				0.475528 0.500000 -0.154509
				0.404509 0.500000 -0.293893
				0.293893 0.500000 -0.404509
				0.154509 0.500000 -0.475528
				-0.000000 0.500000 -0.500000
				-0.154509 0.500000 -0.475528
				-0.293893 0.500000 -0.404509
				-0.404509 0.500000 -0.293893
				-0.475528 0.500000 -0.154509
				-0.500000 0.500000 0.000000
				-0.475528 0.500000 0.154509
				-0.404509 0.500000 0.293893
				-0.293893 0.500000 0.404509
				-0.154509 0.500000 0.475528
				0.000000 0.500000 0.500000
				0.154509 0.500000 0.475528
				0.293893 0.500000 0.404509
				0.404509 0.500000 0.293893
				0.475528 0.500000 0.154509
				0.475528 -0.500000 0.154509
				0.404509 -0.500000 0.293893
				0.293893 -0.500000 0.404509
				0.154509 -0.500000 0.475528
				0.000000 -0.500000 0.500000
				-0.154509 -0.500000 0.475528
				-0.293893 -0.500000 0.404509
				-0.404509 -0.500000 0.293893
				-0.475528 -0.500000 0.154509
				-0.500000 -0.500000 0.000000
				-0.475528 -0.500000 -0.154509
				-0.404509 -0.500000 -0.293893
				-0.293893 -0.500000 -0.404509
				-0.154509 -0.500000 -0.475528
				-0.000000 -0.500000 -0.500000
				0.154509 -0.500000 -0.475528
				0.293893 -0.500000 -0.404509
				0.404509 -0.500000 -0.293893
				0.475528 -0.500000 -0.154509
				0.500000 -0.500000 0.000000
				</DataArray>
			</Points>
			<Polys>
				<DataArray type="Int32" Name="connectivity" format="ascii">
					0 1 3
					0 3 2
					2 3 5
					2 5 4
					4 5 7
					4 7 6
					6 7 9
					6 9 8
					8 9 11
					8 11 10
					10 11 13
					10 13 12
					12 13 15
					12 15 14
					14 15 17
					14 17 16
					16 17 19
					16 19 18
					18 19 21
					18 21 20
					20 21 23
					20 23 22
					22 23 25
					22 25 24
					24 25 27
					24 27 26
					26 27 29
					26 29 28
					28 29 31
					28 31 30
					30 31 33
					30 33 32
					32 33 35
					32 35 34
					34 35 37
					34 37 36
					36 37 39
					36 39 38
					38 39 1
					38 1 0
					40 41 42
					40 42 43
					40 43 44
					40 44 45
					40 45 46
					40 46 47
					40 47 48
					40 48 49
					40 49 50
					40 50 51
					40 51 52
					40 52 53
					40 53 54
					40 54 55
					40 55 56
					40 56 57
					40 57 58
					40 58 59
					60 61 62
					60 62 63
					60 63 64
					60 64 65
					60 65 66
					60 66 67
					60 67 68
					60 68 69
					60 69 70
					60 70 71
					60 71 72
					60 72 73
					60 73 74
					60 74 75
					60 75 76
					60 76 77
					60 77 78
					60 78 79
				</DataArray>
				<DataArray type="Int32" Name="offsets" format="ascii">
					3 6 9 12 15 18 21 24 27 30 33 36 39 42 45 48 51 54 57 60 63 66 69 72 75 78 81 84 87 90 93 96 99 102 105 108 111 114 117 120 123 126 129 132 135 138 141 144 147 150 153 156 159 162 165 168 171 174 177 180 183 186 189 192 195 198 201 204 207 210 213 216 219 222 225 228
				</DataArray>
			</Polys>
		</Piece>
	</PolyData>
</VTKFile>
