<?xml version="1.0"?>
<VTKFile type="PolyData" version="0.1" byte_order="LittleEndian" compressor="vtkZLibDataCompressor">
	<PolyData>
		<Piece NumberOfPoints="42" NumberOfVerts="0" NumberOfLines="0" NumberOfStrips="0" NumberOfPolys="80">
			<PointData Normals="Normals">
				<DataArray type="Float32" Name="Normals" NumberOfComponents="3" format="ascii">
				0.000000 0.000000 0.000000
				0.000000 0.000000 0.000000
				0.000000 0.000000 0.000000
				0.000000 0.000000 0.000000
				0.000000 0.000000 0.000000
				0.000000 0.000000 0.000000
				0.000000 0.000000 0.000000
				0.000000 0.000000 0.000000
				0.000000 0.000000 0.000000
				0.000000 0.000000 0.000000
				0.000000 0.000000 0.000000
				0.000000 0.000000 0.000000
				0.000000 0.000000 0.000000
				0.000000 0.000000 0.000000
				0.000000 0.000000 0.000000
				0.000000 0.000000 0.000000
				0.000000 0.000000 0.000000
				0.000000 0.000000 0.000000
				0.000000 0.000000 0.000000
				0.000000 0.000000 0.000000
				0.000000 0.000000 0.000000
				0.000000 0.000000 0.000000
				0.000000 0.000000 0.000000
				0.000000 0.000000 0.000000
				0.000000 0.000000 0.000000
				0.000000 0.000000 0.000000
				0.000000 0.000000 0.000000
				0.000000 0.000000 0.000000
				0.000000 0.000000 0.000000
				0.000000 0.000000 0.000000
				0.000000 0.000000 0.000000
				0.000000 0.000000 0.000000
				0.000000 0.000000 0.000000
				0.000000 0.000000 0.000000
				0.000000 0.000000 0.000000
				0.000000 0.000000 0.000000
				0.000000 0.000000 0.000000
				0.000000 0.000000 0.000000
				0.000000 0.000000 0.000000
				0.000000 0.000000 0.000000
				0.000000 0.000000 0.000000
				0.000000 0.000000 0.000000
				</DataArray>
			</PointData>
			<Points>
				<DataArray type="Float32" NumberOfComponents="3" format="ascii">
				0.000197 -0.136761 0.026993
				-0.000621 -0.136515 0.020681
				-0.005845 -0.136646 0.016031
				-0.010643 -0.136988 0.020824
				-0.010286 -0.137270 0.025943
				-0.005033 -0.170120 0.021802
				-0.002022 -0.142443 0.026726
				-0.001980 -0.142045 0.021401
				-0.004559 -0.136792 0.029488
				-0.004747 -0.141910 0.028619
				-0.004987 -0.142405 0.016698
				-0.009857 -0.142538 0.020899
				-0.009521 -0.142562 0.025233
				-0.001755 -0.169340 0.024916
				-0.004134 -0.168665 0.025841
				-0.005423 -0.169769 0.021965
				-0.007772 -0.164959 0.022179
				-0.003186 -0.166373 0.018645
				-0.000769 -0.164532 0.023476
				-0.002661 -0.148366 0.026527
				-0.003216 -0.147607 0.022311
				-0.004781 -0.147283 0.027882
				-0.005190 -0.148322 0.018249
				-0.008404 -0.147768 0.026051
				-0.009019 -0.148069 0.020849
				0.002004 -0.165141 0.027395
				-0.001857 -0.168604 0.028172
				-0.003366 -0.168629 0.027837
				-0.003605 -0.163252 0.027937
				-0.006268 -0.163857 0.025400
				-0.007235 -0.158582 0.026023
				-0.008460 -0.159315 0.021870
				-0.004182 -0.160491 0.020006
				-0.002226 -0.158921 0.023047
				-0.000892 -0.160432 0.027536
				-0.002394 -0.154813 0.027136
				-0.003243 -0.153348 0.022618
				-0.005044 -0.152620 0.027614
				-0.005141 -0.154487 0.018938
				-0.007692 -0.153126 0.026464
				-0.008668 -0.153678 0.021506
				-0.004271 -0.157922 0.027814
				</DataArray>
			</Points>
			<Polys>
				<DataArray type="Int32" Name="connectivity" format="ascii">
					0 1 2
					0 2 3
					0 3 4
					0 4 5
					1 0 6
					1 6 7
					0 8 9
					0 9 6
					2 1 7
					2 7 10
					3 2 10
					3 10 11
					4 3 11
					4 11 12
					8 4 12
					8 12 9
					5 13 14
					5 14 15
					16 17 5
					16 5 15
					17 18 13
					17 13 5
					7 6 19
					7 19 20
					6 9 21
					6 21 19
					10 7 20
					10 20 22
					9 12 23
					9 23 21
					11 10 22
					11 22 24
					12 11 24
					12 24 23
					18 25 26
					18 26 13
					13 26 27
					13 27 14
					28 29 14
					28 14 27
					29 16 15
					29 15 14
					30 31 16
					30 16 29
					31 32 17
					31 17 16
					32 33 18
					32 18 17
					33 34 25
					33 25 18
					20 19 35
					20 35 36
					19 21 37
					19 37 35
					22 20 36
					22 36 38
					21 23 39
					21 39 37
					24 22 38
					24 38 40
					23 24 40
					23 40 39
					25 28 27
					25 27 26
					34 41 28
					34 28 25
					41 30 29
					41 29 28
					37 39 30
					37 30 41
					39 40 31
					39 31 30
					40 38 32
					40 32 31
					38 36 33
					38 33 32
					36 35 34
					36 34 33
					35 37 41
					35 41 34
				</DataArray>
				<DataArray type="Int32" Name="offsets" format="ascii">
					3 6 9 12 15 18 21 24 27 30 33 36 39 42 45 48 51 54 57 60 63 66 69 72 75 78 81 84 87 90 93 96 99 102 105 108 111 114 117 120 123 126 129 132 135 138 141 144 147 150 153 156 159 162 165 168 171 174 177 180 183 186 189 192 195 198 201 204 207 210 213 216 219 222 225 228 231 234 237 240
				</DataArray>
			</Polys>
		</Piece>
	</PolyData>
</VTKFile>
