<?xml version="1.0"?>
<VTKFile type="PolyData" version="0.1" byte_order="LittleEndian" compressor="vtkZLibDataCompressor">
	<PolyData>
		<Piece NumberOfPoints="49" NumberOfVerts="0" NumberOfLines="0" NumberOfStrips="0" NumberOfPolys="94">
			<PointData Normals="Normals">
				<DataArray type="Float32" Name="Normals" NumberOfComponents="3" format="ascii">
				0.000000 0.000000 0.000000
				0.000000 0.000000 0.000000
				0.000000 0.000000 0.000000
				0.000000 0.000000 0.000000
				0.000000 0.000000 0.000000
				0.000000 0.000000 0.000000
				0.000000 0.000000 0.000000
				0.000000 0.000000 0.000000
				0.000000 0.000000 0.000000
				0.000000 0.000000 0.000000
				0.000000 0.000000 0.000000
				0.000000 0.000000 0.000000
				0.000000 0.000000 0.000000
				0.000000 0.000000 0.000000
				0.000000 0.000000 0.000000
				0.000000 0.000000 0.000000
				0.000000 0.000000 0.000000
				0.000000 0.000000 0.000000
				0.000000 0.000000 0.000000
				0.000000 0.000000 0.000000
				0.000000 0.000000 0.000000
				0.000000 0.000000 0.000000
				0.000000 0.000000 0.000000
				0.000000 0.000000 0.000000
				0.000000 0.000000 0.000000
				0.000000 0.000000 0.000000
				0.000000 0.000000 0.000000
				0.000000 0.000000 0.000000
				0.000000 0.000000 0.000000
				0.000000 0.000000 0.000000
				0.000000 0.000000 0.000000
				0.000000 0.000000 0.000000
				0.000000 0.000000 0.000000
				0.000000 0.000000 0.000000
				0.000000 0.000000 0.000000
				0.000000 0.000000 0.000000
				0.000000 0.000000 0.000000
				0.000000 0.000000 0.000000
				0.000000 0.000000 0.000000
				0.000000 0.000000 0.000000
				0.000000 0.000000 0.000000
				0.000000 0.000000 0.000000
				0.000000 0.000000 0.000000
				0.000000 0.000000 0.000000
				0.000000 0.000000 0.000000
				0.000000 0.000000 0.000000
				0.000000 0.000000 0.000000
				0.000000 0.000000 0.000000
				0.000000 0.000000 0.000000
				</DataArray>
			</PointData>
			<Points>
				<DataArray type="Float32" NumberOfComponents="3" format="ascii">
				0.006243 -0.074957 0.059788
				0.003395 -0.077614 0.058615
				0.005987 -0.079792 0.060412
				0.008052 -0.078364 0.060576
				0.010878 -0.077321 0.062114
				0.011279 -0.072604 0.061244
				0.010649 -0.068461 0.058765
				0.004987 -0.071344 0.057885
				0.002681 -0.073434 0.056778
				0.004930 -0.077763 0.055419
				0.006123 -0.079228 0.057202
				0.003764 -0.074448 0.054814
				0.008183 -0.084321 0.062719
				0.010147 -0.083051 0.064403
				0.008797 -0.085495 0.060615
				0.013983 -0.076503 0.063179
				0.014340 -0.072653 0.062693
				0.014015 -0.082315 0.064436
				0.013641 -0.068138 0.059484
				0.011444 -0.070828 0.055668
				0.006887 -0.072424 0.055166
				0.009696 -0.076444 0.053068
				0.009638 -0.078464 0.055124
				0.008619 -0.073778 0.052164
				0.011270 -0.085269 0.059311
				0.009306 -0.087903 0.064691
				0.011385 -0.087592 0.065393
				0.009736 -0.089448 0.062655
				0.015909 -0.087091 0.065924
				0.012077 -0.090222 0.062135
				0.015078 -0.077140 0.059956
				0.015269 -0.074029 0.058979
				0.014634 -0.083110 0.061767
				0.015525 -0.070420 0.057228
				0.015728 -0.087917 0.063559
				0.013635 -0.072710 0.052868
				0.012661 -0.075513 0.054369
				0.012827 -0.077888 0.056338
				0.013539 -0.084591 0.059936
				0.014417 -0.089413 0.062367
				0.010293 -0.094538 0.065397
				0.013277 -0.090401 0.067079
				0.011951 -0.093956 0.063832
				0.016491 -0.091780 0.066972
				0.016959 -0.093212 0.065663
				0.014948 -0.093382 0.064562
				0.012560 -0.096206 0.066389
				0.014807 -0.096000 0.065721
				0.016050 -0.096602 0.067109
				</DataArray>
			</Points>
			<Polys>
				<DataArray type="Int32" Name="connectivity" format="ascii">
					0 1 2
					0 2 3
					3 4 5
					3 5 0
					5 6 7
					5 7 0
					0 7 8
					0 8 1
					2 1 9
					2 9 10
					9 1 8
					9 8 11
					3 2 12
					3 12 13
					2 10 14
					2 14 12
					3 13 4
					5 4 15
					5 15 16
					4 13 17
					4 17 15
					6 5 16
					6 16 18
					19 6 18
					6 19 20
					6 20 7
					7 20 8
					8 20 11
					9 21 22
					9 22 10
					11 23 21
					11 21 9
					10 22 24
					10 24 14
					11 20 23
					12 25 26
					12 26 13
					12 14 27
					12 27 25
					13 26 28
					13 28 17
					14 24 29
					14 29 27
					16 15 30
					16 30 31
					30 15 17
					30 17 32
					31 33 18
					31 18 16
					32 17 28
					32 28 34
					19 18 33
					33 35 19
					19 35 23
					19 23 20
					21 36 37
					21 37 22
					21 23 35
					21 35 36
					22 37 38
					22 38 24
					24 38 39
					24 39 29
					25 40 41
					25 41 26
					25 27 42
					25 42 40
					26 41 43
					26 43 28
					27 29 42
					34 28 43
					34 43 44
					29 39 45
					29 45 42
					32 38 37
					32 37 30
					30 37 36
					30 36 31
					36 35 33
					36 33 31
					34 39 38
					34 38 32
					44 45 39
					44 39 34
					40 46 41
					47 46 40
					47 40 42
					48 43 41
					41 46 48
					42 45 47
					48 44 43
					47 45 44
					48 47 44
					48 46 47
				</DataArray>
				<DataArray type="Int32" Name="offsets" format="ascii">
					3 6 9 12 15 18 21 24 27 30 33 36 39 42 45 48 51 54 57 60 63 66 69 72 75 78 81 84 87 90 93 96 99 102 105 108 111 114 117 120 123 126 129 132 135 138 141 144 147 150 153 156 159 162 165 168 171 174 177 180 183 186 189 192 195 198 201 204 207 210 213 216 219 222 225 228 231 234 237 240 243 246 249 252 255 258 261 264 267 270 273 276 279 282
				</DataArray>
			</Polys>
		</Piece>
	</PolyData>
</VTKFile>
