<?xml version="1.0"?>
<VTKFile type="PolyData" version="0.1" byte_order="LittleEndian" compressor="vtkZLibDataCompressor">
	<PolyData>
		<Piece NumberOfPoints="106" NumberOfVerts="0" NumberOfLines="0" NumberOfStrips="0" NumberOfPolys="208">
			<PointData Normals="Normals">
				<DataArray type="Float32" Name="Normals" NumberOfComponents="3" format="ascii">
				0.000000 0.000000 0.000000
				0.000000 0.000000 0.000000
				0.000000 0.000000 0.000000
				0.000000 0.000000 0.000000
				0.000000 0.000000 0.000000
				0.000000 0.000000 0.000000
				0.000000 0.000000 0.000000
				0.000000 0.000000 0.000000
				0.000000 0.000000 0.000000
				0.000000 0.000000 0.000000
				0.000000 0.000000 0.000000
				0.000000 0.000000 0.000000
				0.000000 0.000000 0.000000
				0.000000 0.000000 0.000000
				0.000000 0.000000 0.000000
				0.000000 0.000000 0.000000
				0.000000 0.000000 0.000000
				0.000000 0.000000 0.000000
				0.000000 0.000000 0.000000
				0.000000 0.000000 0.000000
				0.000000 0.000000 0.000000
				0.000000 0.000000 0.000000
				0.000000 0.000000 0.000000
				0.000000 0.000000 0.000000
				0.000000 0.000000 0.000000
				0.000000 0.000000 0.000000
				0.000000 0.000000 0.000000
				0.000000 0.000000 0.000000
				0.000000 0.000000 0.000000
				0.000000 0.000000 0.000000
				0.000000 0.000000 0.000000
				0.000000 0.000000 0.000000
				0.000000 0.000000 0.000000
				0.000000 0.000000 0.000000
				0.000000 0.000000 0.000000
				0.000000 0.000000 0.000000
				0.000000 0.000000 0.000000
				0.000000 0.000000 0.000000
				0.000000 0.000000 0.000000
				0.000000 0.000000 0.000000
				0.000000 0.000000 0.000000
				0.000000 0.000000 0.000000
				0.000000 0.000000 0.000000
				0.000000 0.000000 0.000000
				0.000000 0.000000 0.000000
				0.000000 0.000000 0.000000
				0.000000 0.000000 0.000000
				0.000000 0.000000 0.000000
				0.000000 0.000000 0.000000
				0.000000 0.000000 0.000000
				0.000000 0.000000 0.000000
				0.000000 0.000000 0.000000
				0.000000 0.000000 0.000000
				0.000000 0.000000 0.000000
				0.000000 0.000000 0.000000
				0.000000 0.000000 0.000000
				0.000000 0.000000 0.000000
				0.000000 0.000000 0.000000
				0.000000 0.000000 0.000000
				0.000000 0.000000 0.000000
				0.000000 0.000000 0.000000
				0.000000 0.000000 0.000000
				0.000000 0.000000 0.000000
				0.000000 0.000000 0.000000
				0.000000 0.000000 0.000000
				0.000000 0.000000 0.000000
				0.000000 0.000000 0.000000
				0.000000 0.000000 0.000000
				0.000000 0.000000 0.000000
				0.000000 0.000000 0.000000
				0.000000 0.000000 0.000000
				0.000000 0.000000 0.000000
				0.000000 0.000000 0.000000
				0.000000 0.000000 0.000000
				0.000000 0.000000 0.000000
				0.000000 0.000000 0.000000
				0.000000 0.000000 0.000000
				0.000000 0.000000 0.000000
				0.000000 0.000000 0.000000
				0.000000 0.000000 0.000000
				0.000000 0.000000 0.000000
				0.000000 0.000000 0.000000
				0.000000 0.000000 0.000000
				0.000000 0.000000 0.000000
				0.000000 0.000000 0.000000
				0.000000 0.000000 0.000000
				0.000000 0.000000 0.000000
				0.000000 0.000000 0.000000
				0.000000 0.000000 0.000000
				0.000000 0.000000 0.000000
				0.000000 0.000000 0.000000
				0.000000 0.000000 0.000000
				0.000000 0.000000 0.000000
				0.000000 0.000000 0.000000
				0.000000 0.000000 0.000000
				0.000000 0.000000 0.000000
				0.000000 0.000000 0.000000
				0.000000 0.000000 0.000000
				0.000000 0.000000 0.000000
				0.000000 0.000000 0.000000
				0.000000 0.000000 0.000000
				0.000000 0.000000 0.000000
				0.000000 0.000000 0.000000
				0.000000 0.000000 0.000000
				0.000000 0.000000 0.000000
				0.000000 0.000000 0.000000
				</DataArray>
			</PointData>
			<Points>
				<DataArray type="Float32" NumberOfComponents="3" format="ascii">
				-0.002714 -0.077016 -0.001663
				-0.007757 -0.080821 -0.000931
				-0.002450 -0.085223 -0.004385
				-0.002864 -0.083690 -0.001791
				-0.002640 -0.070391 -0.001137
				-0.007622 -0.074053 -0.000035
				0.005042 -0.079323 -0.000271
				0.001912 -0.084176 -0.004572
				0.005796 -0.072244 -0.000322
				-0.004873 -0.079055 -0.011211
				-0.002420 -0.084582 -0.007649
				-0.006662 -0.072624 -0.012957
				0.000046 -0.084278 -0.007047
				-0.003576 -0.063814 -0.001893
				-0.008404 -0.067252 -0.002139
				0.003126 -0.065831 -0.002726
				-0.007223 -0.065781 -0.012692
				0.006142 -0.080543 -0.003344
				0.001511 -0.084876 -0.005867
				0.006849 -0.073969 -0.004631
				0.004156 -0.066996 -0.005041
				-0.000837 -0.078607 -0.013549
				-0.002126 -0.084390 -0.009755
				-0.000324 -0.071885 -0.014846
				-0.002082 -0.065100 -0.014527
				0.002469 -0.083852 -0.010918
				0.002868 -0.082836 -0.012623
				-0.004559 -0.057208 -0.002823
				-0.008727 -0.060280 -0.003543
				0.000275 -0.059213 -0.004075
				-0.007599 -0.058881 -0.011812
				0.002118 -0.060356 -0.005536
				-0.004524 -0.058578 -0.014436
				0.007583 -0.078941 -0.010911
				0.008600 -0.072629 -0.010658
				0.004547 -0.066625 -0.009473
				0.001214 -0.060671 -0.010447
				0.007256 -0.077982 -0.015412
				0.006931 -0.071079 -0.015026
				0.001587 -0.067361 -0.012359
				-0.000273 -0.060206 -0.012138
				-0.004842 -0.050537 -0.003168
				-0.009299 -0.053298 -0.004869
				-0.001042 -0.052111 -0.004128
				-0.008366 -0.052056 -0.011215
				0.001197 -0.053510 -0.006953
				-0.006602 -0.052038 -0.013371
				0.000186 -0.053961 -0.011145
				-0.001303 -0.052985 -0.012714
				-0.004429 -0.043877 -0.003433
				-0.009217 -0.046251 -0.005529
				-0.000669 -0.044957 -0.004914
				-0.008825 -0.045201 -0.010916
				0.000855 -0.046491 -0.007699
				-0.007404 -0.045240 -0.012316
				0.000150 -0.046898 -0.011396
				-0.002066 -0.046150 -0.013225
				-0.003643 -0.037244 -0.003706
				-0.008394 -0.039169 -0.005557
				0.000236 -0.037806 -0.005063
				-0.008705 -0.038306 -0.010776
				0.000947 -0.039441 -0.007260
				-0.007179 -0.038286 -0.011919
				0.000038 -0.039864 -0.011168
				-0.002087 -0.039111 -0.013363
				-0.003079 -0.030594 -0.003576
				-0.007415 -0.032135 -0.005443
				0.000549 -0.030731 -0.003789
				-0.008151 -0.031437 -0.010589
				0.001814 -0.032471 -0.006609
				-0.006483 -0.031377 -0.011933
				0.000388 -0.033014 -0.010877
				-0.001287 -0.032012 -0.013291
				-0.002720 -0.023950 -0.002937
				-0.006535 -0.025084 -0.005199
				0.000021 -0.023745 -0.002355
				-0.007574 -0.024581 -0.010244
				0.002949 -0.025489 -0.006607
				-0.005738 -0.024474 -0.012033
				0.002129 -0.026294 -0.011149
				0.000125 -0.025015 -0.013359
				-0.002241 -0.017369 -0.001874
				-0.006344 -0.018009 -0.005100
				0.000503 -0.016378 -0.001360
				-0.007353 -0.017712 -0.009737
				0.004352 -0.018582 -0.006514
				-0.005215 -0.017565 -0.012461
				0.003603 -0.019550 -0.011747
				-0.001554 -0.017921 -0.013754
				-0.002064 -0.010647 -0.002618
				-0.006936 -0.010934 -0.005604
				0.005745 -0.010896 0.000086
				-0.007572 -0.010828 -0.009933
				0.007245 -0.012405 -0.004544
				-0.005311 -0.010727 -0.013736
				0.006818 -0.012956 -0.010976
				-0.001380 -0.010958 -0.013920
				-0.001241 -0.005737 -0.003242
				-0.005372 -0.005266 -0.005608
				0.007744 -0.005829 0.000117
				-0.006556 -0.004279 -0.009799
				0.007914 -0.005838 -0.003298
				-0.005659 -0.004116 -0.012208
				0.005957 -0.006144 -0.012436
				0.000960 -0.006448 -0.013911
				0.000446 -0.002476 -0.006360
				</DataArray>
			</Points>
			<Polys>
				<DataArray type="Int32" Name="connectivity" format="ascii">
					0 1 2
					0 2 3
					4 5 1
					4 1 0
					6 0 3
					6 3 7
					8 4 0
					8 0 6
					1 9 10
					1 10 2
					5 11 9
					5 9 1
					2 10 12
					3 2 12
					7 3 12
					13 14 5
					13 5 4
					15 13 4
					15 4 8
					14 16 11
					14 11 5
					17 6 7
					17 7 18
					19 8 6
					19 6 17
					18 7 12
					20 15 8
					20 8 19
					9 21 22
					9 22 10
					11 23 21
					11 21 9
					10 22 12
					16 24 23
					16 23 11
					25 18 12
					26 25 12
					22 26 12
					27 28 14
					27 14 13
					29 27 13
					29 13 15
					28 30 16
					28 16 14
					31 29 15
					31 15 20
					30 32 24
					30 24 16
					33 17 25
					34 19 17
					34 17 33
					18 25 17
					35 20 19
					35 19 34
					36 31 20
					36 20 35
					21 37 26
					21 26 22
					23 38 37
					23 37 21
					24 39 38
					24 38 23
					32 40 39
					32 39 24
					37 33 25
					37 25 26
					41 42 28
					41 28 27
					43 41 27
					43 27 29
					42 44 30
					42 30 28
					45 43 29
					45 29 31
					44 46 32
					44 32 30
					47 45 31
					47 31 36
					46 48 40
					46 40 32
					38 34 33
					38 33 37
					39 35 34
					39 34 38
					40 36 35
					40 35 39
					48 47 36
					48 36 40
					49 50 42
					49 42 41
					51 49 41
					51 41 43
					50 52 44
					50 44 42
					53 51 43
					53 43 45
					52 54 46
					52 46 44
					55 53 45
					55 45 47
					54 56 48
					54 48 46
					56 55 47
					56 47 48
					57 58 50
					57 50 49
					59 57 49
					59 49 51
					58 60 52
					58 52 50
					61 59 51
					61 51 53
					60 62 54
					60 54 52
					63 61 53
					63 53 55
					62 64 56
					62 56 54
					64 63 55
					64 55 56
					65 66 58
					65 58 57
					67 65 57
					67 57 59
					66 68 60
					66 60 58
					69 67 59
					69 59 61
					68 70 62
					68 62 60
					71 69 61
					71 61 63
					70 72 64
					70 64 62
					72 71 63
					72 63 64
					73 74 66
					73 66 65
					75 73 65
					75 65 67
					74 76 68
					74 68 66
					77 75 67
					77 67 69
					76 78 70
					76 70 68
					79 77 69
					79 69 71
					78 80 72
					78 72 70
					80 79 71
					80 71 72
					81 82 74
					81 74 73
					83 81 73
					83 73 75
					82 84 76
					82 76 74
					85 83 75
					85 75 77
					84 86 78
					84 78 76
					87 85 77
					87 77 79
					86 88 80
					86 80 78
					88 87 79
					88 79 80
					89 90 82
					89 82 81
					91 89 81
					91 81 83
					90 92 84
					90 84 82
					93 91 83
					93 83 85
					92 94 86
					92 86 84
					95 93 85
					95 85 87
					94 96 88
					94 88 86
					96 95 87
					96 87 88
					97 98 90
					97 90 89
					99 97 89
					99 89 91
					98 100 92
					98 92 90
					101 99 91
					101 91 93
					100 102 94
					100 94 92
					103 101 93
					103 93 95
					102 104 96
					102 96 94
					104 103 95
					104 95 96
					105 98 97
					105 97 99
					105 100 98
					105 99 101
					105 102 100
					105 101 103
					105 104 102
					105 103 104
				</DataArray>
				<DataArray type="Int32" Name="offsets" format="ascii">
					3 6 9 12 15 18 21 24 27 30 33 36 39 42 45 48 51 54 57 60 63 66 69 72 75 78 81 84 87 90 93 96 99 102 105 108 111 114 117 120 123 126 129 132 135 138 141 144 147 150 153 156 159 162 165 168 171 174 177 180 183 186 189 192 195 198 201 204 207 210 213 216 219 222 225 228 231 234 237 240 243 246 249 252 255 258 261 264 267 270 273 276 279 282 285 288 291 294 297 300 303 306 309 312 315 318 321 324 327 330 333 336 339 342 345 348 351 354 357 360 363 366 369 372 375 378 381 384 387 390 393 396 399 402 405 408 411 414 417 420 423 426 429 432 435 438 441 444 447 450 453 456 459 462 465 468 471 474 477 480 483 486 489 492 495 498 501 504 507 510 513 516 519 522 525 528 531 534 537 540 543 546 549 552 555 558 561 564 567 570 573 576 579 582 585 588 591 594 597 600 603 606 609 612 615 618 621 624
				</DataArray>
			</Polys>
		</Piece>
	</PolyData>
</VTKFile>
