<?xml version="1.0"?>
<VTKFile type="PolyData" version="0.1" byte_order="LittleEndian" compressor="vtkZLibDataCompressor">
	<PolyData>
		<Piece NumberOfPoints="27" NumberOfVerts="0" NumberOfLines="0" NumberOfStrips="0" NumberOfPolys="50">
			<PointData Normals="Normals">
				<DataArray type="Float32" Name="Normals" NumberOfComponents="3" format="ascii">
				0.000000 0.000000 0.000000
				0.000000 0.000000 0.000000
				0.000000 0.000000 0.000000
				0.000000 0.000000 0.000000
				0.000000 0.000000 0.000000
				0.000000 0.000000 0.000000
				0.000000 0.000000 0.000000
				0.000000 0.000000 0.000000
				0.000000 0.000000 0.000000
				0.000000 0.000000 0.000000
				0.000000 0.000000 0.000000
				0.000000 0.000000 0.000000
				0.000000 0.000000 0.000000
				0.000000 0.000000 0.000000
				0.000000 0.000000 0.000000
				0.000000 0.000000 0.000000
				0.000000 0.000000 0.000000
				0.000000 0.000000 0.000000
				0.000000 0.000000 0.000000
				0.000000 0.000000 0.000000
				0.000000 0.000000 0.000000
				0.000000 0.000000 0.000000
				0.000000 0.000000 0.000000
				0.000000 0.000000 0.000000
				0.000000 0.000000 0.000000
				0.000000 0.000000 0.000000
				0.000000 0.000000 0.000000
				</DataArray>
			</PointData>
			<Points>
				<DataArray type="Float32" NumberOfComponents="3" format="ascii">
				0.000811 -0.004906 0.005553
				0.003753 -0.003370 -0.000162
				0.001497 -0.003687 -0.005040
				-0.003313 -0.003375 0.000023
				0.000612 -0.007621 0.004762
				0.003602 -0.006778 -0.000232
				-0.003201 -0.007013 -0.000462
				0.001364 -0.007492 -0.004578
				0.000109 -0.010397 0.004524
				0.002524 -0.009847 0.000582
				-0.002256 -0.010445 0.000264
				0.000360 -0.010511 -0.002285
				0.000041 -0.012991 0.004052
				0.002311 -0.013220 0.001100
				-0.002146 -0.013966 0.001113
				0.000074 -0.014131 -0.001135
				0.001237 -0.015633 0.004908
				0.002266 -0.016417 0.002244
				-0.001896 -0.017518 0.001904
				0.000598 -0.018302 -0.000435
				0.002118 -0.018290 0.005512
				0.003138 -0.019674 0.003017
				-0.000493 -0.020667 0.003099
				0.001458 -0.021939 0.001025
				0.002844 -0.020966 0.006020
				0.002096 -0.022665 0.004168
				0.001614 -0.023009 0.004969
				</DataArray>
			</Points>
			<Polys>
				<DataArray type="Int32" Name="connectivity" format="ascii">
					0 1 2
					0 2 3
					1 0 4
					1 4 5
					0 3 6
					0 6 4
					2 1 5
					2 5 7
					3 2 7
					3 7 6
					5 4 8
					5 8 9
					4 6 10
					4 10 8
					7 5 9
					7 9 11
					6 7 11
					6 11 10
					9 8 12
					9 12 13
					8 10 14
					8 14 12
					11 9 13
					11 13 15
					10 11 15
					10 15 14
					13 12 16
					13 16 17
					12 14 18
					12 18 16
					15 13 17
					15 17 19
					14 15 19
					14 19 18
					17 16 20
					17 20 21
					16 18 22
					16 22 20
					19 17 21
					19 21 23
					18 19 23
					18 23 22
					21 20 24
					21 24 25
					20 22 26
					20 26 24
					23 21 25
					22 23 25
					22 25 26
					25 24 26
				</DataArray>
				<DataArray type="Int32" Name="offsets" format="ascii">
					3 6 9 12 15 18 21 24 27 30 33 36 39 42 45 48 51 54 57 60 63 66 69 72 75 78 81 84 87 90 93 96 99 102 105 108 111 114 117 120 123 126 129 132 135 138 141 144 147 150
				</DataArray>
			</Polys>
		</Piece>
	</PolyData>
</VTKFile>
