<?xml version="1.0"?>
<VTKFile type="PolyData" version="0.1" byte_order="LittleEndian" compressor="vtkZLibDataCompressor">
	<PolyData>
		<Piece NumberOfPoints="27" NumberOfVerts="0" NumberOfLines="0" NumberOfStrips="0" NumberOfPolys="50">
			<PointData Normals="Normals">
				<DataArray type="Float32" Name="Normals" NumberOfComponents="3" format="ascii">
				0.000000 0.000000 0.000000
				0.000000 0.000000 0.000000
				0.000000 0.000000 0.000000
				0.000000 0.000000 0.000000
				0.000000 0.000000 0.000000
				0.000000 0.000000 0.000000
				0.000000 0.000000 0.000000
				0.000000 0.000000 0.000000
				0.000000 0.000000 0.000000
				0.000000 0.000000 0.000000
				0.000000 0.000000 0.000000
				0.000000 0.000000 0.000000
				0.000000 0.000000 0.000000
				0.000000 0.000000 0.000000
				0.000000 0.000000 0.000000
				0.000000 0.000000 0.000000
				0.000000 0.000000 0.000000
				0.000000 0.000000 0.000000
				0.000000 0.000000 0.000000
				0.000000 0.000000 0.000000
				0.000000 0.000000 0.000000
				0.000000 0.000000 0.000000
				0.000000 0.000000 0.000000
				0.000000 0.000000 0.000000
				0.000000 0.000000 0.000000
				0.000000 0.000000 0.000000
				0.000000 0.000000 0.000000
				</DataArray>
			</PointData>
			<Points>
				<DataArray type="Float32" NumberOfComponents="3" format="ascii">
				-0.002517 -0.170037 0.031507
				0.000764 -0.166936 0.026384
				-0.001240 -0.166718 0.021363
				-0.006424 -0.167838 0.026044
				-0.002612 -0.172999 0.030220
				0.000694 -0.170804 0.025682
				-0.006198 -0.171863 0.024912
				-0.001314 -0.171126 0.021114
				-0.003044 -0.176165 0.029442
				-0.000378 -0.174556 0.025845
				-0.005201 -0.175764 0.025070
				-0.002397 -0.175072 0.022744
				-0.003027 -0.179031 0.028500
				-0.000546 -0.178496 0.025723
				-0.005057 -0.179888 0.025270
				-0.002669 -0.179411 0.023194
				-0.001801 -0.182028 0.028948
				-0.000584 -0.182325 0.026262
				-0.004767 -0.184022 0.025419
				-0.002082 -0.184196 0.023160
				-0.000879 -0.185037 0.029123
				0.000331 -0.186044 0.026492
				-0.003339 -0.187628 0.026124
				-0.001208 -0.188468 0.023997
				-0.000110 -0.188070 0.029188
				-0.000724 -0.189763 0.027002
				-0.001252 -0.190352 0.027691
				</DataArray>
			</Points>
			<Polys>
				<DataArray type="Int32" Name="connectivity" format="ascii">
					0 1 2
					0 2 3
					1 0 4
					1 4 5
					0 3 6
					0 6 4
					2 1 5
					2 5 7
					3 2 7
					3 7 6
					5 4 8
					5 8 9
					4 6 10
					4 10 8
					7 5 9
					7 9 11
					6 7 11
					6 11 10
					9 8 12
					9 12 13
					8 10 14
					8 14 12
					11 9 13
					11 13 15
					10 11 15
					10 15 14
					13 12 16
					13 16 17
					12 14 18
					12 18 16
					15 13 17
					15 17 19
					14 15 19
					14 19 18
					17 16 20
					17 20 21
					16 18 22
					16 22 20
					19 17 21
					19 21 23
					18 19 23
					18 23 22
					21 20 24
					21 24 25
					20 22 26
					20 26 24
					23 21 25
					22 23 25
					22 25 26
					25 24 26
				</DataArray>
				<DataArray type="Int32" Name="offsets" format="ascii">
					3 6 9 12 15 18 21 24 27 30 33 36 39 42 45 48 51 54 57 60 63 66 69 72 75 78 81 84 87 90 93 96 99 102 105 108 111 114 117 120 123 126 129 132 135 138 141 144 147 150
				</DataArray>
			</Polys>
		</Piece>
	</PolyData>
</VTKFile>
