<?xml version="1.0"?>
<VTKFile type="PolyData" version="0.1" byte_order="LittleEndian" compressor="vtkZLibDataCompressor">
	<PolyData>
		<Piece NumberOfPoints="42" NumberOfVerts="0" NumberOfLines="0" NumberOfStrips="0" NumberOfPolys="80">
			<PointData Normals="Normals">
				<DataArray type="Float32" Name="Normals" NumberOfComponents="3" format="ascii">
				0.000000 0.000000 0.000000
				0.000000 0.000000 0.000000
				0.000000 0.000000 0.000000
				0.000000 0.000000 0.000000
				0.000000 0.000000 0.000000
				0.000000 0.000000 0.000000
				0.000000 0.000000 0.000000
				0.000000 0.000000 0.000000
				0.000000 0.000000 0.000000
				0.000000 0.000000 0.000000
				0.000000 0.000000 0.000000
				0.000000 0.000000 0.000000
				0.000000 0.000000 0.000000
				0.000000 0.000000 0.000000
				0.000000 0.000000 0.000000
				0.000000 0.000000 0.000000
				0.000000 0.000000 0.000000
				0.000000 0.000000 0.000000
				0.000000 0.000000 0.000000
				0.000000 0.000000 0.000000
				0.000000 0.000000 0.000000
				0.000000 0.000000 0.000000
				0.000000 0.000000 0.000000
				0.000000 0.000000 0.000000
				0.000000 0.000000 0.000000
				0.000000 0.000000 0.000000
				0.000000 0.000000 0.000000
				0.000000 0.000000 0.000000
				0.000000 0.000000 0.000000
				0.000000 0.000000 0.000000
				0.000000 0.000000 0.000000
				0.000000 0.000000 0.000000
				0.000000 0.000000 0.000000
				0.000000 0.000000 0.000000
				0.000000 0.000000 0.000000
				0.000000 0.000000 0.000000
				0.000000 0.000000 0.000000
				0.000000 0.000000 0.000000
				0.000000 0.000000 0.000000
				0.000000 0.000000 0.000000
				0.000000 0.000000 0.000000
				0.000000 0.000000 0.000000
				</DataArray>
			</PointData>
			<Points>
				<DataArray type="Float32" NumberOfComponents="3" format="ascii">
				0.007591 -0.110324 -0.031279
				0.006897 -0.110268 -0.036451
				0.002597 -0.110281 -0.040227
				-0.001311 -0.110219 -0.036269
				-0.001001 -0.110316 -0.032072
				0.002259 -0.136479 -0.034388
				0.005600 -0.114707 -0.031297
				0.005619 -0.114541 -0.035670
				0.003714 -0.110082 -0.029213
				0.003398 -0.114122 -0.029753
				0.003125 -0.114827 -0.039492
				-0.000840 -0.114614 -0.036026
				-0.000543 -0.114529 -0.032480
				0.004979 -0.135918 -0.031881
				0.003060 -0.135263 -0.031135
				0.001952 -0.136183 -0.034264
				0.000181 -0.132297 -0.034238
				0.003869 -0.133696 -0.037106
				0.005926 -0.132217 -0.033225
				0.004894 -0.119343 -0.031259
				0.004441 -0.118838 -0.034733
				0.003201 -0.118366 -0.030176
				0.002784 -0.119429 -0.038024
				0.000214 -0.118647 -0.031641
				-0.000325 -0.119000 -0.035886
				0.008196 -0.132704 -0.030010
				0.004935 -0.135246 -0.029240
				0.003700 -0.135211 -0.029506
				0.003670 -0.130970 -0.029603
				0.001461 -0.131405 -0.031646
				0.000836 -0.127200 -0.031308
				-0.000210 -0.127838 -0.034677
				0.003243 -0.128992 -0.036184
				0.004906 -0.127756 -0.033757
				0.005974 -0.128877 -0.030038
				0.004917 -0.124407 -0.030546
				0.004244 -0.123343 -0.034289
				0.002820 -0.122559 -0.030216
				0.002638 -0.124260 -0.037255
				0.000633 -0.122878 -0.031128
				-0.000207 -0.123407 -0.035163
				0.003289 -0.126755 -0.029879
				</DataArray>
			</Points>
			<Polys>
				<DataArray type="Int32" Name="connectivity" format="ascii">
					0 1 2
					0 2 3
					0 3 4
					0 4 5
					1 0 6
					1 6 7
					0 8 9
					0 9 6
					2 1 7
					2 7 10
					3 2 10
					3 10 11
					4 3 11
					4 11 12
					8 4 12
					8 12 9
					5 13 14
					5 14 15
					16 17 5
					16 5 15
					17 18 13
					17 13 5
					7 6 19
					7 19 20
					6 9 21
					6 21 19
					10 7 20
					10 20 22
					9 12 23
					9 23 21
					11 10 22
					11 22 24
					12 11 24
					12 24 23
					18 25 26
					18 26 13
					13 26 27
					13 27 14
					28 29 14
					28 14 27
					29 16 15
					29 15 14
					30 31 16
					30 16 29
					31 32 17
					31 17 16
					32 33 18
					32 18 17
					33 34 25
					33 25 18
					20 19 35
					20 35 36
					19 21 37
					19 37 35
					22 20 36
					22 36 38
					21 23 39
					21 39 37
					24 22 38
					24 38 40
					23 24 40
					23 40 39
					25 28 27
					25 27 26
					34 41 28
					34 28 25
					41 30 29
					41 29 28
					37 39 30
					37 30 41
					39 40 31
					39 31 30
					40 38 32
					40 32 31
					38 36 33
					38 33 32
					36 35 34
					36 34 33
					35 37 41
					35 41 34
				</DataArray>
				<DataArray type="Int32" Name="offsets" format="ascii">
					3 6 9 12 15 18 21 24 27 30 33 36 39 42 45 48 51 54 57 60 63 66 69 72 75 78 81 84 87 90 93 96 99 102 105 108 111 114 117 120 123 126 129 132 135 138 141 144 147 150 153 156 159 162 165 168 171 174 177 180 183 186 189 192 195 198 201 204 207 210 213 216 219 222 225 228 231 234 237 240
				</DataArray>
			</Polys>
		</Piece>
	</PolyData>
</VTKFile>
