<?xml version="1.0"?>
<VTKFile type="PolyData" version="0.1" byte_order="LittleEndian" compressor="vtkZLibDataCompressor">
	<PolyData>
		<Piece NumberOfPoints="78" NumberOfVerts="0" NumberOfLines="0" NumberOfStrips="0" NumberOfPolys="152">
			<PointData Normals="Normals">
				<DataArray type="Float32" Name="Normals" NumberOfComponents="3" format="ascii">
				0.000000 0.000000 0.000000
				0.000000 0.000000 0.000000
				0.000000 0.000000 0.000000
				0.000000 0.000000 0.000000
				0.000000 0.000000 0.000000
				0.000000 0.000000 0.000000
				0.000000 0.000000 0.000000
				0.000000 0.000000 0.000000
				0.000000 0.000000 0.000000
				0.000000 0.000000 0.000000
				0.000000 0.000000 0.000000
				0.000000 0.000000 0.000000
				0.000000 0.000000 0.000000
				0.000000 0.000000 0.000000
				0.000000 0.000000 0.000000
				0.000000 0.000000 0.000000
				0.000000 0.000000 0.000000
				0.000000 0.000000 0.000000
				0.000000 0.000000 0.000000
				0.000000 0.000000 0.000000
				0.000000 0.000000 0.000000
				0.000000 0.000000 0.000000
				0.000000 0.000000 0.000000
				0.000000 0.000000 0.000000
				0.000000 0.000000 0.000000
				0.000000 0.000000 0.000000
				0.000000 0.000000 0.000000
				0.000000 0.000000 0.000000
				0.000000 0.000000 0.000000
				0.000000 0.000000 0.000000
				0.000000 0.000000 0.000000
				0.000000 0.000000 0.000000
				0.000000 0.000000 0.000000
				0.000000 0.000000 0.000000
				0.000000 0.000000 0.000000
				0.000000 0.000000 0.000000
				0.000000 0.000000 0.000000
				0.000000 0.000000 0.000000
				0.000000 0.000000 0.000000
				0.000000 0.000000 0.000000
				0.000000 0.000000 0.000000
				0.000000 0.000000 0.000000
				0.000000 0.000000 0.000000
				0.000000 0.000000 0.000000
				0.000000 0.000000 0.000000
				0.000000 0.000000 0.000000
				0.000000 0.000000 0.000000
				0.000000 0.000000 0.000000
				0.000000 0.000000 0.000000
				0.000000 0.000000 0.000000
				0.000000 0.000000 0.000000
				0.000000 0.000000 0.000000
				0.000000 0.000000 0.000000
				0.000000 0.000000 0.000000
				0.000000 0.000000 0.000000
				0.000000 0.000000 0.000000
				0.000000 0.000000 0.000000
				0.000000 0.000000 0.000000
				0.000000 0.000000 0.000000
				0.000000 0.000000 0.000000
				0.000000 0.000000 0.000000
				0.000000 0.000000 0.000000
				0.000000 0.000000 0.000000
				0.000000 0.000000 0.000000
				0.000000 0.000000 0.000000
				0.000000 0.000000 0.000000
				0.000000 0.000000 0.000000
				0.000000 0.000000 0.000000
				0.000000 0.000000 0.000000
				0.000000 0.000000 0.000000
				0.000000 0.000000 0.000000
				0.000000 0.000000 0.000000
				0.000000 0.000000 0.000000
				0.000000 0.000000 0.000000
				0.000000 0.000000 0.000000
				0.000000 0.000000 0.000000
				0.000000 0.000000 0.000000
				0.000000 0.000000 0.000000
				</DataArray>
			</PointData>
			<Points>
				<DataArray type="Float32" NumberOfComponents="3" format="ascii">
				0.004637 -0.101048 -0.039110
				0.004947 -0.100645 -0.036284
				0.006826 -0.106121 -0.037701
				0.007419 -0.106004 -0.038901
				0.002278 -0.096167 -0.038763
				0.003845 -0.095148 -0.035887
				0.002078 -0.098601 -0.039433
				0.003362 -0.103717 -0.038976
				0.001367 -0.093387 -0.039680
				0.003038 -0.100061 -0.035003
				0.005087 -0.105016 -0.035254
				0.002654 -0.094508 -0.034423
				0.003214 -0.109758 -0.035630
				0.003498 -0.109306 -0.038544
				0.002126 -0.090157 -0.038738
				0.002658 -0.089486 -0.036159
				0.001331 -0.088072 -0.039799
				0.002012 -0.089052 -0.033865
				-0.000185 -0.098721 -0.038488
				0.001300 -0.103893 -0.038862
				-0.001271 -0.093453 -0.038415
				-0.001756 -0.088110 -0.038998
				0.002870 -0.102059 -0.030681
				0.005732 -0.106856 -0.030815
				0.000862 -0.096675 -0.030846
				0.002802 -0.109949 -0.033543
				0.001145 -0.090805 -0.030259
				0.001866 -0.109686 -0.037643
				0.002107 -0.110118 -0.032224
				-0.001105 -0.108865 -0.033561
				-0.000259 -0.104885 -0.036785
				0.002618 -0.083992 -0.038875
				0.002580 -0.083717 -0.035869
				0.001272 -0.082756 -0.040015
				0.001867 -0.083572 -0.033324
				-0.001657 -0.082715 -0.039521
				0.000836 -0.085006 -0.029963
				-0.001190 -0.099493 -0.036179
				-0.002618 -0.094254 -0.035861
				-0.003544 -0.088904 -0.035829
				-0.004016 -0.083449 -0.035836
				0.000708 -0.099751 -0.031093
				0.001485 -0.104960 -0.031361
				0.000001 -0.094546 -0.030830
				-0.000842 -0.089309 -0.030560
				-0.001448 -0.084069 -0.030180
				-0.000627 -0.103804 -0.033530
				-0.001375 -0.098879 -0.032831
				0.003431 -0.078200 -0.038968
				0.003441 -0.077960 -0.036192
				0.001565 -0.077499 -0.040594
				0.002495 -0.078025 -0.032917
				-0.001527 -0.077332 -0.039971
				0.001183 -0.079096 -0.029834
				-0.004537 -0.078016 -0.035806
				-0.000682 -0.078970 -0.029219
				-0.002509 -0.093959 -0.032248
				-0.003339 -0.088962 -0.032156
				-0.003722 -0.083913 -0.032058
				-0.004131 -0.078856 -0.031925
				0.005346 -0.072738 -0.038646
				0.006017 -0.072870 -0.036114
				0.002685 -0.072372 -0.040954
				0.005516 -0.073706 -0.032040
				-0.002361 -0.072084 -0.040932
				0.003697 -0.074143 -0.028428
				-0.004890 -0.072575 -0.036095
				-0.000679 -0.073943 -0.027716
				-0.004786 -0.073834 -0.031802
				0.004468 -0.067001 -0.039248
				0.006090 -0.067354 -0.036504
				0.005345 -0.068214 -0.031872
				-0.001770 -0.066953 -0.039598
				0.004105 -0.068426 -0.028162
				-0.004296 -0.067267 -0.035010
				-0.000393 -0.068766 -0.027561
				-0.004256 -0.068848 -0.031110
				0.001517 -0.068678 -0.034445
				</DataArray>
			</Points>
			<Polys>
				<DataArray type="Int32" Name="connectivity" format="ascii">
					0 1 2
					0 2 3
					4 5 1
					4 1 0
					6 0 3
					6 3 7
					8 4 0
					8 0 6
					1 9 10
					1 10 2
					5 11 9
					5 9 1
					2 10 12
					3 2 12
					12 13 3
					13 7 3
					14 15 5
					14 5 4
					16 14 4
					16 4 8
					15 17 11
					15 11 5
					18 6 7
					18 7 19
					20 8 6
					20 6 18
					7 13 19
					21 16 8
					21 8 20
					9 22 23
					9 23 10
					11 24 22
					11 22 9
					10 23 25
					10 25 12
					17 26 24
					17 24 11
					27 12 25
					27 25 28
					27 28 29
					12 27 13
					30 19 13
					30 13 27
					31 32 15
					31 15 14
					33 31 14
					33 14 16
					32 34 17
					32 17 15
					35 33 16
					35 16 21
					34 36 26
					34 26 17
					37 18 19
					37 19 30
					38 20 18
					38 18 37
					39 21 20
					39 20 38
					40 35 21
					40 21 39
					22 41 42
					22 42 23
					24 43 41
					24 41 22
					23 28 25
					23 42 28
					26 44 43
					26 43 24
					36 45 44
					36 44 26
					46 30 27
					46 27 29
					42 46 29
					42 29 28
					47 37 30
					47 30 46
					48 49 32
					48 32 31
					50 48 31
					50 31 33
					49 51 34
					49 34 32
					52 50 33
					52 33 35
					51 53 36
					51 36 34
					54 52 35
					54 35 40
					53 55 45
					53 45 36
					56 38 37
					56 37 47
					57 39 38
					57 38 56
					58 40 39
					58 39 57
					59 54 40
					59 40 58
					41 47 46
					41 46 42
					43 56 47
					43 47 41
					44 57 56
					44 56 43
					45 58 57
					45 57 44
					55 59 58
					55 58 45
					60 61 49
					60 49 48
					62 60 48
					62 48 50
					61 63 51
					61 51 49
					64 62 50
					64 50 52
					63 65 53
					63 53 51
					66 64 52
					66 52 54
					65 67 55
					65 55 53
					68 66 54
					68 54 59
					67 68 59
					67 59 55
					69 70 61
					69 61 60
					69 60 62
					70 71 63
					70 63 61
					72 69 62
					72 62 64
					71 73 65
					71 65 63
					74 72 64
					74 64 66
					73 75 67
					73 67 65
					76 74 66
					76 66 68
					75 76 68
					75 68 67
					69 72 77
					70 69 77
					71 70 77
					73 71 77
					72 74 77
					75 73 77
					74 76 77
					76 75 77
				</DataArray>
				<DataArray type="Int32" Name="offsets" format="ascii">
					3 6 9 12 15 18 21 24 27 30 33 36 39 42 45 48 51 54 57 60 63 66 69 72 75 78 81 84 87 90 93 96 99 102 105 108 111 114 117 120 123 126 129 132 135 138 141 144 147 150 153 156 159 162 165 168 171 174 177 180 183 186 189 192 195 198 201 204 207 210 213 216 219 222 225 228 231 234 237 240 243 246 249 252 255 258 261 264 267 270 273 276 279 282 285 288 291 294 297 300 303 306 309 312 315 318 321 324 327 330 333 336 339 342 345 348 351 354 357 360 363 366 369 372 375 378 381 384 387 390 393 396 399 402 405 408 411 414 417 420 423 426 429 432 435 438 441 444 447 450 453 456
				</DataArray>
			</Polys>
		</Piece>
	</PolyData>
</VTKFile>
