<?xml version="1.0"?>
<VTKFile type="PolyData" version="0.1" byte_order="LittleEndian" compressor="vtkZLibDataCompressor">
	<PolyData>
		<Piece NumberOfPoints="106" NumberOfVerts="0" NumberOfLines="0" NumberOfStrips="0" NumberOfPolys="208">
			<PointData Normals="Normals">
				<DataArray type="Float32" Name="Normals" NumberOfComponents="3" format="ascii">
				0.000000 0.000000 0.000000
				0.000000 0.000000 0.000000
				0.000000 0.000000 0.000000
				0.000000 0.000000 0.000000
				0.000000 0.000000 0.000000
				0.000000 0.000000 0.000000
				0.000000 0.000000 0.000000
				0.000000 0.000000 0.000000
				0.000000 0.000000 0.000000
				0.000000 0.000000 0.000000
				0.000000 0.000000 0.000000
				0.000000 0.000000 0.000000
				0.000000 0.000000 0.000000
				0.000000 0.000000 0.000000
				0.000000 0.000000 0.000000
				0.000000 0.000000 0.000000
				0.000000 0.000000 0.000000
				0.000000 0.000000 0.000000
				0.000000 0.000000 0.000000
				0.000000 0.000000 0.000000
				0.000000 0.000000 0.000000
				0.000000 0.000000 0.000000
				0.000000 0.000000 0.000000
				0.000000 0.000000 0.000000
				0.000000 0.000000 0.000000
				0.000000 0.000000 0.000000
				0.000000 0.000000 0.000000
				0.000000 0.000000 0.000000
				0.000000 0.000000 0.000000
				0.000000 0.000000 0.000000
				0.000000 0.000000 0.000000
				0.000000 0.000000 0.000000
				0.000000 0.000000 0.000000
				0.000000 0.000000 0.000000
				0.000000 0.000000 0.000000
				0.000000 0.000000 0.000000
				0.000000 0.000000 0.000000
				0.000000 0.000000 0.000000
				0.000000 0.000000 0.000000
				0.000000 0.000000 0.000000
				0.000000 0.000000 0.000000
				0.000000 0.000000 0.000000
				0.000000 0.000000 0.000000
				0.000000 0.000000 0.000000
				0.000000 0.000000 0.000000
				0.000000 0.000000 0.000000
				0.000000 0.000000 0.000000
				0.000000 0.000000 0.000000
				0.000000 0.000000 0.000000
				0.000000 0.000000 0.000000
				0.000000 0.000000 0.000000
				0.000000 0.000000 0.000000
				0.000000 0.000000 0.000000
				0.000000 0.000000 0.000000
				0.000000 0.000000 0.000000
				0.000000 0.000000 0.000000
				0.000000 0.000000 0.000000
				0.000000 0.000000 0.000000
				0.000000 0.000000 0.000000
				0.000000 0.000000 0.000000
				0.000000 0.000000 0.000000
				0.000000 0.000000 0.000000
				0.000000 0.000000 0.000000
				0.000000 0.000000 0.000000
				0.000000 0.000000 0.000000
				0.000000 0.000000 0.000000
				0.000000 0.000000 0.000000
				0.000000 0.000000 0.000000
				0.000000 0.000000 0.000000
				0.000000 0.000000 0.000000
				0.000000 0.000000 0.000000
				0.000000 0.000000 0.000000
				0.000000 0.000000 0.000000
				0.000000 0.000000 0.000000
				0.000000 0.000000 0.000000
				0.000000 0.000000 0.000000
				0.000000 0.000000 0.000000
				0.000000 0.000000 0.000000
				0.000000 0.000000 0.000000
				0.000000 0.000000 0.000000
				0.000000 0.000000 0.000000
				0.000000 0.000000 0.000000
				0.000000 0.000000 0.000000
				0.000000 0.000000 0.000000
				0.000000 0.000000 0.000000
				0.000000 0.000000 0.000000
				0.000000 0.000000 0.000000
				0.000000 0.000000 0.000000
				0.000000 0.000000 0.000000
				0.000000 0.000000 0.000000
				0.000000 0.000000 0.000000
				0.000000 0.000000 0.000000
				0.000000 0.000000 0.000000
				0.000000 0.000000 0.000000
				0.000000 0.000000 0.000000
				0.000000 0.000000 0.000000
				0.000000 0.000000 0.000000
				0.000000 0.000000 0.000000
				0.000000 0.000000 0.000000
				0.000000 0.000000 0.000000
				0.000000 0.000000 0.000000
				0.000000 0.000000 0.000000
				0.000000 0.000000 0.000000
				0.000000 0.000000 0.000000
				0.000000 0.000000 0.000000
				0.000000 0.000000 0.000000
				</DataArray>
			</PointData>
			<Points>
				<DataArray type="Float32" NumberOfComponents="3" format="ascii">
				-0.001811 -0.063740 -0.031161
				-0.005943 -0.066914 -0.031163
				-0.001595 -0.069919 -0.034627
				-0.001934 -0.069089 -0.032302
				-0.001749 -0.058491 -0.029708
				-0.005832 -0.061608 -0.029391
				0.004545 -0.065812 -0.030400
				0.001980 -0.069048 -0.034614
				0.005163 -0.060109 -0.029341
				-0.003580 -0.063896 -0.039159
				-0.001570 -0.068896 -0.037153
				-0.005045 -0.058451 -0.039564
				0.000450 -0.068745 -0.036622
				-0.002516 -0.053082 -0.029294
				-0.006473 -0.055810 -0.030027
				0.002975 -0.054576 -0.030278
				-0.005505 -0.052986 -0.038288
				0.005446 -0.066316 -0.033062
				0.001651 -0.069409 -0.035765
				0.006026 -0.060827 -0.033075
				0.003819 -0.055154 -0.032322
				-0.000273 -0.063172 -0.040971
				-0.001329 -0.068414 -0.038817
				0.000148 -0.057563 -0.040970
				-0.001292 -0.052153 -0.039658
				0.002436 -0.067801 -0.039669
				0.002763 -0.066718 -0.040883
				-0.003322 -0.047623 -0.029015
				-0.006737 -0.049983 -0.030072
				0.000639 -0.049042 -0.030334
				-0.005813 -0.047572 -0.036507
				0.002150 -0.049735 -0.031688
				-0.003293 -0.046920 -0.038571
				0.006626 -0.063851 -0.038900
				0.007460 -0.058813 -0.037716
				0.004139 -0.054166 -0.035829
				0.001409 -0.049225 -0.035687
				0.006358 -0.062380 -0.042372
				0.006093 -0.056887 -0.040989
				0.001714 -0.054309 -0.038265
				0.000190 -0.048588 -0.036975
				-0.003553 -0.042203 -0.028256
				-0.007205 -0.044160 -0.030054
				-0.000439 -0.043320 -0.029273
				-0.006440 -0.042174 -0.034966
				0.001395 -0.044007 -0.031763
				-0.004995 -0.041825 -0.036697
				0.000567 -0.043718 -0.035206
				-0.000653 -0.042689 -0.036317
				-0.003214 -0.036804 -0.027434
				-0.007137 -0.038388 -0.029489
				-0.000133 -0.037443 -0.028793
				-0.006816 -0.036706 -0.033660
				0.001115 -0.038244 -0.031272
				-0.005651 -0.036520 -0.034792
				0.000538 -0.037997 -0.034310
				-0.001278 -0.037110 -0.035665
				-0.002570 -0.031425 -0.026623
				-0.006463 -0.032686 -0.028411
				0.000609 -0.031667 -0.027802
				-0.006717 -0.031180 -0.032475
				0.001191 -0.032641 -0.029824
				-0.005466 -0.030986 -0.033392
				0.000447 -0.032373 -0.033033
				-0.001295 -0.031427 -0.034682
				-0.002107 -0.026096 -0.025484
				-0.005660 -0.027045 -0.027226
				0.000866 -0.026173 -0.025677
				-0.006263 -0.025683 -0.031258
				0.001902 -0.027135 -0.028216
				-0.004896 -0.025426 -0.032329
				0.000734 -0.026907 -0.031735
				-0.000639 -0.025727 -0.033521
				-0.001812 -0.020850 -0.023937
				-0.004938 -0.021410 -0.025934
				0.000434 -0.020775 -0.023437
				-0.005790 -0.020221 -0.029914
				0.002833 -0.021518 -0.027129
				-0.004285 -0.019858 -0.031337
				0.001828 -0.021421 -0.030690
				0.000447 -0.020125 -0.032095
				-0.001419 -0.015720 -0.022059
				-0.004782 -0.015734 -0.024754
				0.000626 -0.014676 -0.022076
				-0.005608 -0.014774 -0.028439
				0.003982 -0.015976 -0.025981
				-0.003856 -0.014232 -0.030607
				0.002670 -0.015807 -0.029790
				0.000654 -0.014343 -0.031046
				-0.001262 -0.010348 -0.020843
				-0.005751 -0.009986 -0.023754
				0.004381 -0.011104 -0.021226
				-0.005015 -0.009254 -0.027325
				0.005546 -0.010916 -0.023409
				-0.003435 -0.008625 -0.029952
				0.004178 -0.010324 -0.028201
				0.000843 -0.008678 -0.030728
				0.000245 -0.006655 -0.019720
				-0.005237 -0.005624 -0.021115
				0.005394 -0.007390 -0.020698
				-0.004954 -0.003958 -0.026401
				0.006902 -0.006223 -0.021413
				-0.003258 -0.003819 -0.029344
				0.004716 -0.005823 -0.028564
				0.001859 -0.004630 -0.029786
				0.000681 -0.005832 -0.024554
				</DataArray>
			</Points>
			<Polys>
				<DataArray type="Int32" Name="connectivity" format="ascii">
					0 1 2
					0 2 3
					4 5 1
					4 1 0
					6 0 3
					6 3 7
					8 4 0
					8 0 6
					1 9 10
					1 10 2
					5 11 9
					5 9 1
					2 10 12
					3 2 12
					7 3 12
					13 14 5
					13 5 4
					15 13 4
					15 4 8
					14 16 11
					14 11 5
					17 6 7
					17 7 18
					19 8 6
					19 6 17
					18 7 12
					20 15 8
					20 8 19
					9 21 22
					9 22 10
					11 23 21
					11 21 9
					10 22 12
					16 24 23
					16 23 11
					25 18 12
					26 25 12
					22 26 12
					27 28 14
					27 14 13
					29 27 13
					29 13 15
					28 30 16
					28 16 14
					31 29 15
					31 15 20
					30 32 24
					30 24 16
					33 17 25
					34 19 17
					34 17 33
					18 25 17
					35 20 19
					35 19 34
					36 31 20
					36 20 35
					21 37 26
					21 26 22
					23 38 37
					23 37 21
					24 39 38
					24 38 23
					32 40 39
					32 39 24
					37 33 25
					37 25 26
					41 42 28
					41 28 27
					43 41 27
					43 27 29
					42 44 30
					42 30 28
					45 43 29
					45 29 31
					44 46 32
					44 32 30
					47 45 31
					47 31 36
					46 48 40
					46 40 32
					38 34 33
					38 33 37
					39 35 34
					39 34 38
					40 36 35
					40 35 39
					48 47 36
					48 36 40
					49 50 42
					49 42 41
					51 49 41
					51 41 43
					50 52 44
					50 44 42
					53 51 43
					53 43 45
					52 54 46
					52 46 44
					55 53 45
					55 45 47
					54 56 48
					54 48 46
					56 55 47
					56 47 48
					57 58 50
					57 50 49
					59 57 49
					59 49 51
					58 60 52
					58 52 50
					61 59 51
					61 51 53
					60 62 54
					60 54 52
					63 61 53
					63 53 55
					62 64 56
					62 56 54
					64 63 55
					64 55 56
					65 66 58
					65 58 57
					67 65 57
					67 57 59
					66 68 60
					66 60 58
					69 67 59
					69 59 61
					68 70 62
					68 62 60
					71 69 61
					71 61 63
					70 72 64
					70 64 62
					72 71 63
					72 63 64
					73 74 66
					73 66 65
					75 73 65
					75 65 67
					74 76 68
					74 68 66
					77 75 67
					77 67 69
					76 78 70
					76 70 68
					79 77 69
					79 69 71
					78 80 72
					78 72 70
					80 79 71
					80 71 72
					81 82 74
					81 74 73
					83 81 73
					83 73 75
					82 84 76
					82 76 74
					85 83 75
					85 75 77
					84 86 78
					84 78 76
					87 85 77
					87 77 79
					86 88 80
					86 80 78
					88 87 79
					88 79 80
					89 90 82
					89 82 81
					91 89 81
					91 81 83
					90 92 84
					90 84 82
					93 91 83
					93 83 85
					92 94 86
					92 86 84
					95 93 85
					95 85 87
					94 96 88
					94 88 86
					96 95 87
					96 87 88
					97 98 90
					97 90 89
					99 97 89
					99 89 91
					98 100 92
					98 92 90
					101 99 91
					101 91 93
					100 102 94
					100 94 92
					103 101 93
					103 93 95
					102 104 96
					102 96 94
					104 103 95
					104 95 96
					105 98 97
					105 97 99
					105 100 98
					105 99 101
					105 102 100
					105 101 103
					105 104 102
					105 103 104
				</DataArray>
				<DataArray type="Int32" Name="offsets" format="ascii">
					3 6 9 12 15 18 21 24 27 30 33 36 39 42 45 48 51 54 57 60 63 66 69 72 75 78 81 84 87 90 93 96 99 102 105 108 111 114 117 120 123 126 129 132 135 138 141 144 147 150 153 156 159 162 165 168 171 174 177 180 183 186 189 192 195 198 201 204 207 210 213 216 219 222 225 228 231 234 237 240 243 246 249 252 255 258 261 264 267 270 273 276 279 282 285 288 291 294 297 300 303 306 309 312 315 318 321 324 327 330 333 336 339 342 345 348 351 354 357 360 363 366 369 372 375 378 381 384 387 390 393 396 399 402 405 408 411 414 417 420 423 426 429 432 435 438 441 444 447 450 453 456 459 462 465 468 471 474 477 480 483 486 489 492 495 498 501 504 507 510 513 516 519 522 525 528 531 534 537 540 543 546 549 552 555 558 561 564 567 570 573 576 579 582 585 588 591 594 597 600 603 606 609 612 615 618 621 624
				</DataArray>
			</Polys>
		</Piece>
	</PolyData>
</VTKFile>
