<?xml version="1.0"?>
<VTKFile type="PolyData" version="0.1" byte_order="LittleEndian" compressor="vtkZLibDataCompressor">
	<PolyData>
		<Piece NumberOfPoints="27" NumberOfVerts="0" NumberOfLines="0" NumberOfStrips="0" NumberOfPolys="50">
			<PointData Normals="Normals">
				<DataArray type="Float32" Name="Normals" NumberOfComponents="3" format="ascii">
				0.000000 0.000000 0.000000
				0.000000 0.000000 0.000000
				0.000000 0.000000 0.000000
				0.000000 0.000000 0.000000
				0.000000 0.000000 0.000000
				0.000000 0.000000 0.000000
				0.000000 0.000000 0.000000
				0.000000 0.000000 0.000000
				0.000000 0.000000 0.000000
				0.000000 0.000000 0.000000
				0.000000 0.000000 0.000000
				0.000000 0.000000 0.000000
				0.000000 0.000000 0.000000
				0.000000 0.000000 0.000000
				0.000000 0.000000 0.000000
				0.000000 0.000000 0.000000
				0.000000 0.000000 0.000000
				0.000000 0.000000 0.000000
				0.000000 0.000000 0.000000
				0.000000 0.000000 0.000000
				0.000000 0.000000 0.000000
				0.000000 0.000000 0.000000
				0.000000 0.000000 0.000000
				0.000000 0.000000 0.000000
				0.000000 0.000000 0.000000
				0.000000 0.000000 0.000000
				0.000000 0.000000 0.000000
				</DataArray>
			</PointData>
			<Points>
				<DataArray type="Float32" NumberOfComponents="3" format="ascii">
				0.001718 -0.166486 0.004528
				0.004710 -0.163984 -0.001020
				0.002556 -0.164303 -0.005957
				-0.002421 -0.164976 -0.000998
				0.001700 -0.169455 0.003580
				0.004770 -0.167761 -0.001287
				-0.002073 -0.168944 -0.001686
				0.002647 -0.168553 -0.005715
				0.001370 -0.172573 0.003173
				0.003854 -0.171355 -0.000673
				-0.000924 -0.172653 -0.001134
				0.001772 -0.172186 -0.003622
				0.001470 -0.175413 0.002554
				0.003837 -0.175145 -0.000353
				-0.000613 -0.176584 -0.000485
				0.001683 -0.176303 -0.002686
				0.002822 -0.178224 0.003285
				0.003965 -0.178761 0.000606
				-0.000159 -0.180527 0.000109
				0.002454 -0.180884 -0.002212
				0.003862 -0.181079 0.003757
				0.005028 -0.182291 0.001213
				0.001425 -0.183894 0.001155
				0.003515 -0.184883 -0.000941
				0.004748 -0.183969 0.004129
				0.004138 -0.185817 0.002168
				0.003656 -0.186320 0.002936
				</DataArray>
			</Points>
			<Polys>
				<DataArray type="Int32" Name="connectivity" format="ascii">
					0 1 2
					0 2 3
					1 0 4
					1 4 5
					0 3 6
					0 6 4
					2 1 5
					2 5 7
					3 2 7
					3 7 6
					5 4 8
					5 8 9
					4 6 10
					4 10 8
					7 5 9
					7 9 11
					6 7 11
					6 11 10
					9 8 12
					9 12 13
					8 10 14
					8 14 12
					11 9 13
					11 13 15
					10 11 15
					10 15 14
					13 12 16
					13 16 17
					12 14 18
					12 18 16
					15 13 17
					15 17 19
					14 15 19
					14 19 18
					17 16 20
					17 20 21
					16 18 22
					16 22 20
					19 17 21
					19 21 23
					18 19 23
					18 23 22
					21 20 24
					21 24 25
					20 22 26
					20 26 24
					23 21 25
					22 23 25
					22 25 26
					25 24 26
				</DataArray>
				<DataArray type="Int32" Name="offsets" format="ascii">
					3 6 9 12 15 18 21 24 27 30 33 36 39 42 45 48 51 54 57 60 63 66 69 72 75 78 81 84 87 90 93 96 99 102 105 108 111 114 117 120 123 126 129 132 135 138 141 144 147 150
				</DataArray>
			</Polys>
		</Piece>
	</PolyData>
</VTKFile>
