<?xml version="1.0"?>
<VTKFile type="PolyData" version="0.1" byte_order="LittleEndian" compressor="vtkZLibDataCompressor">
	<PolyData>
		<Piece NumberOfPoints="106" NumberOfVerts="0" NumberOfLines="0" NumberOfStrips="0" NumberOfPolys="208">
			<PointData Normals="Normals">
				<DataArray type="Float32" Name="Normals" NumberOfComponents="3" format="ascii">
				0.000000 0.000000 0.000000
				0.000000 0.000000 0.000000
				0.000000 0.000000 0.000000
				0.000000 0.000000 0.000000
				0.000000 0.000000 0.000000
				0.000000 0.000000 0.000000
				0.000000 0.000000 0.000000
				0.000000 0.000000 0.000000
				0.000000 0.000000 0.000000
				0.000000 0.000000 0.000000
				0.000000 0.000000 0.000000
				0.000000 0.000000 0.000000
				0.000000 0.000000 0.000000
				0.000000 0.000000 0.000000
				0.000000 0.000000 0.000000
				0.000000 0.000000 0.000000
				0.000000 0.000000 0.000000
				0.000000 0.000000 0.000000
				0.000000 0.000000 0.000000
				0.000000 0.000000 0.000000
				0.000000 0.000000 0.000000
				0.000000 0.000000 0.000000
				0.000000 0.000000 0.000000
				0.000000 0.000000 0.000000
				0.000000 0.000000 0.000000
				0.000000 0.000000 0.000000
				0.000000 0.000000 0.000000
				0.000000 0.000000 0.000000
				0.000000 0.000000 0.000000
				0.000000 0.000000 0.000000
				0.000000 0.000000 0.000000
				0.000000 0.000000 0.000000
				0.000000 0.000000 0.000000
				0.000000 0.000000 0.000000
				0.000000 0.000000 0.000000
				0.000000 0.000000 0.000000
				0.000000 0.000000 0.000000
				0.000000 0.000000 0.000000
				0.000000 0.000000 0.000000
				0.000000 0.000000 0.000000
				0.000000 0.000000 0.000000
				0.000000 0.000000 0.000000
				0.000000 0.000000 0.000000
				0.000000 0.000000 0.000000
				0.000000 0.000000 0.000000
				0.000000 0.000000 0.000000
				0.000000 0.000000 0.000000
				0.000000 0.000000 0.000000
				0.000000 0.000000 0.000000
				0.000000 0.000000 0.000000
				0.000000 0.000000 0.000000
				0.000000 0.000000 0.000000
				0.000000 0.000000 0.000000
				0.000000 0.000000 0.000000
				0.000000 0.000000 0.000000
				0.000000 0.000000 0.000000
				0.000000 0.000000 0.000000
				0.000000 0.000000 0.000000
				0.000000 0.000000 0.000000
				0.000000 0.000000 0.000000
				0.000000 0.000000 0.000000
				0.000000 0.000000 0.000000
				0.000000 0.000000 0.000000
				0.000000 0.000000 0.000000
				0.000000 0.000000 0.000000
				0.000000 0.000000 0.000000
				0.000000 0.000000 0.000000
				0.000000 0.000000 0.000000
				0.000000 0.000000 0.000000
				0.000000 0.000000 0.000000
				0.000000 0.000000 0.000000
				0.000000 0.000000 0.000000
				0.000000 0.000000 0.000000
				0.000000 0.000000 0.000000
				0.000000 0.000000 0.000000
				0.000000 0.000000 0.000000
				0.000000 0.000000 0.000000
				0.000000 0.000000 0.000000
				0.000000 0.000000 0.000000
				0.000000 0.000000 0.000000
				0.000000 0.000000 0.000000
				0.000000 0.000000 0.000000
				0.000000 0.000000 0.000000
				0.000000 0.000000 0.000000
				0.000000 0.000000 0.000000
				0.000000 0.000000 0.000000
				0.000000 0.000000 0.000000
				0.000000 0.000000 0.000000
				0.000000 0.000000 0.000000
				0.000000 0.000000 0.000000
				0.000000 0.000000 0.000000
				0.000000 0.000000 0.000000
				0.000000 0.000000 0.000000
				0.000000 0.000000 0.000000
				0.000000 0.000000 0.000000
				0.000000 0.000000 0.000000
				0.000000 0.000000 0.000000
				0.000000 0.000000 0.000000
				0.000000 0.000000 0.000000
				0.000000 0.000000 0.000000
				0.000000 0.000000 0.000000
				0.000000 0.000000 0.000000
				0.000000 0.000000 0.000000
				0.000000 0.000000 0.000000
				0.000000 0.000000 0.000000
				0.000000 0.000000 0.000000
				</DataArray>
			</PointData>
			<Points>
				<DataArray type="Float32" NumberOfComponents="3" format="ascii">
				-0.007618 -0.076319 0.019802
				-0.012697 -0.080114 0.021010
				-0.007435 -0.085150 0.018142
				-0.007831 -0.083234 0.020521
				-0.007481 -0.069404 0.019482
				-0.012497 -0.073005 0.021040
				0.000117 -0.078599 0.021474
				-0.003063 -0.084131 0.017824
				0.000938 -0.071294 0.020526
				-0.009808 -0.079616 0.010587
				-0.007403 -0.084901 0.014822
				-0.011538 -0.073173 0.008039
				-0.004933 -0.084533 0.015381
				-0.008356 -0.062692 0.017897
				-0.013217 -0.066234 0.018089
				-0.001675 -0.064944 0.017327
				-0.012035 -0.066060 0.007434
				0.001202 -0.080258 0.018581
				-0.003473 -0.085015 0.016628
				0.001970 -0.073632 0.016470
				-0.000659 -0.066451 0.015178
				-0.005771 -0.079485 0.008211
				-0.007109 -0.084971 0.012709
				-0.005195 -0.072706 0.006071
				-0.006889 -0.065634 0.005527
				-0.002511 -0.084604 0.011487
				-0.002104 -0.083774 0.009666
				-0.009279 -0.055972 0.016137
				-0.013476 -0.059201 0.015813
				-0.004465 -0.058248 0.015150
				-0.012345 -0.058812 0.007431
				-0.002634 -0.059631 0.013845
				-0.009270 -0.058858 0.004789
				0.002649 -0.079573 0.010870
				0.003726 -0.073026 0.010321
				-0.000269 -0.066632 0.010734
				-0.003547 -0.060570 0.009012
				0.002326 -0.079149 0.006284
				0.002067 -0.071961 0.005790
				-0.003239 -0.067731 0.007965
				-0.005032 -0.060290 0.007276
				-0.009499 -0.049117 0.014948
				-0.013983 -0.052146 0.013611
				-0.005715 -0.050900 0.014196
				-0.013046 -0.051674 0.007157
				-0.003492 -0.052725 0.011570
				-0.011285 -0.051944 0.005017
				-0.004512 -0.053712 0.007468
				-0.005994 -0.052888 0.005788
				-0.009024 -0.042269 0.013840
				-0.013836 -0.044946 0.012063
				-0.005276 -0.043607 0.012508
				-0.013440 -0.044546 0.006584
				-0.003769 -0.045560 0.009939
				-0.012021 -0.044776 0.005201
				-0.004483 -0.046443 0.006324
				-0.006693 -0.045880 0.004414
				-0.008175 -0.035454 0.012728
				-0.012946 -0.037635 0.011136
				-0.004303 -0.036243 0.011452
				-0.013255 -0.037400 0.005849
				-0.003610 -0.038218 0.009480
				-0.011730 -0.037538 0.004711
				-0.004527 -0.039141 0.005657
				-0.006648 -0.038621 0.003384
				-0.007549 -0.028568 0.012013
				-0.011901 -0.030358 0.010356
				-0.003922 -0.028770 0.011819
				-0.012636 -0.030281 0.005162
				-0.002677 -0.030938 0.009242
				-0.010970 -0.030404 0.003822
				-0.004113 -0.032026 0.005076
				-0.005781 -0.031281 0.002554
				-0.007126 -0.021622 0.011804
				-0.010954 -0.023046 0.009704
				-0.004383 -0.021361 0.012355
				-0.011994 -0.023155 0.004634
				-0.001476 -0.023730 0.008359
				-0.010159 -0.023288 0.002846
				-0.002309 -0.025130 0.003954
				-0.004303 -0.024069 0.001600
				-0.006584 -0.014689 0.012024
				-0.010697 -0.015722 0.008904
				-0.003830 -0.013625 0.012407
				-0.011708 -0.015993 0.004266
				-0.000008 -0.016591 0.007574
				-0.009571 -0.016204 0.001545
				-0.000772 -0.018246 0.002505
				-0.003521 -0.017118 -0.000354
				-0.006554 -0.007735 0.011950
				-0.011814 -0.008369 0.007870
				0.000841 -0.007735 0.013456
				-0.011863 -0.008898 0.003198
				0.002946 -0.009982 0.008744
				-0.009605 -0.009296 -0.000587
				0.001232 -0.011589 0.000880
				-0.003979 -0.007165 -0.002865
				-0.005446 -0.001467 0.010773
				-0.012269 -0.001280 0.007673
				0.004677 -0.001497 0.012415
				-0.009017 -0.000204 0.004950
				0.003816 -0.002822 0.008474
				-0.009120 -0.000995 0.001911
				0.001114 -0.004347 -0.000596
				-0.005178 -0.004638 -0.003739
				-0.005299 -0.001296 0.003769
				</DataArray>
			</Points>
			<Polys>
				<DataArray type="Int32" Name="connectivity" format="ascii">
					0 1 2
					0 2 3
					4 5 1
					4 1 0
					6 0 3
					6 3 7
					8 4 0
					8 0 6
					1 9 10
					1 10 2
					5 11 9
					5 9 1
					2 10 12
					3 2 12
					7 3 12
					13 14 5
					13 5 4
					15 13 4
					15 4 8
					14 16 11
					14 11 5
					17 6 7
					17 7 18
					19 8 6
					19 6 17
					18 7 12
					20 15 8
					20 8 19
					9 21 22
					9 22 10
					11 23 21
					11 21 9
					10 22 12
					16 24 23
					16 23 11
					25 18 12
					26 25 12
					22 26 12
					27 28 14
					27 14 13
					29 27 13
					29 13 15
					28 30 16
					28 16 14
					31 29 15
					31 15 20
					30 32 24
					30 24 16
					33 17 25
					34 19 17
					34 17 33
					18 25 17
					35 20 19
					35 19 34
					36 31 20
					36 20 35
					21 37 26
					21 26 22
					23 38 37
					23 37 21
					24 39 38
					24 38 23
					32 40 39
					32 39 24
					37 33 25
					37 25 26
					41 42 28
					41 28 27
					43 41 27
					43 27 29
					42 44 30
					42 30 28
					45 43 29
					45 29 31
					44 46 32
					44 32 30
					47 45 31
					47 31 36
					46 48 40
					46 40 32
					38 34 33
					38 33 37
					39 35 34
					39 34 38
					40 36 35
					40 35 39
					48 47 36
					48 36 40
					49 50 42
					49 42 41
					51 49 41
					51 41 43
					50 52 44
					50 44 42
					53 51 43
					53 43 45
					52 54 46
					52 46 44
					55 53 45
					55 45 47
					54 56 48
					54 48 46
					56 55 47
					56 47 48
					57 58 50
					57 50 49
					59 57 49
					59 49 51
					58 60 52
					58 52 50
					61 59 51
					61 51 53
					60 62 54
					60 54 52
					63 61 53
					63 53 55
					62 64 56
					62 56 54
					64 63 55
					64 55 56
					65 66 58
					65 58 57
					67 65 57
					67 57 59
					66 68 60
					66 60 58
					69 67 59
					69 59 61
					68 70 62
					68 62 60
					71 69 61
					71 61 63
					70 72 64
					70 64 62
					72 71 63
					72 63 64
					73 74 66
					73 66 65
					75 73 65
					75 65 67
					74 76 68
					74 68 66
					77 75 67
					77 67 69
					76 78 70
					76 70 68
					79 77 69
					79 69 71
					78 80 72
					78 72 70
					80 79 71
					80 71 72
					81 82 74
					81 74 73
					83 81 73
					83 73 75
					82 84 76
					82 76 74
					85 83 75
					85 75 77
					84 86 78
					84 78 76
					87 85 77
					87 77 79
					86 88 80
					86 80 78
					88 87 79
					88 79 80
					89 90 82
					89 82 81
					91 89 81
					91 81 83
					90 92 84
					90 84 82
					93 91 83
					93 83 85
					92 94 86
					92 86 84
					95 93 85
					95 85 87
					94 96 88
					94 88 86
					96 95 87
					96 87 88
					97 98 90
					97 90 89
					99 97 89
					99 89 91
					98 100 92
					98 92 90
					101 99 91
					101 91 93
					100 102 94
					100 94 92
					103 101 93
					103 93 95
					102 104 96
					102 96 94
					104 103 95
					104 95 96
					105 98 97
					105 97 99
					105 100 98
					105 99 101
					105 102 100
					105 101 103
					105 104 102
					105 103 104
				</DataArray>
				<DataArray type="Int32" Name="offsets" format="ascii">
					3 6 9 12 15 18 21 24 27 30 33 36 39 42 45 48 51 54 57 60 63 66 69 72 75 78 81 84 87 90 93 96 99 102 105 108 111 114 117 120 123 126 129 132 135 138 141 144 147 150 153 156 159 162 165 168 171 174 177 180 183 186 189 192 195 198 201 204 207 210 213 216 219 222 225 228 231 234 237 240 243 246 249 252 255 258 261 264 267 270 273 276 279 282 285 288 291 294 297 300 303 306 309 312 315 318 321 324 327 330 333 336 339 342 345 348 351 354 357 360 363 366 369 372 375 378 381 384 387 390 393 396 399 402 405 408 411 414 417 420 423 426 429 432 435 438 441 444 447 450 453 456 459 462 465 468 471 474 477 480 483 486 489 492 495 498 501 504 507 510 513 516 519 522 525 528 531 534 537 540 543 546 549 552 555 558 561 564 567 570 573 576 579 582 585 588 591 594 597 600 603 606 609 612 615 618 621 624
				</DataArray>
			</Polys>
		</Piece>
	</PolyData>
</VTKFile>
