<?xml version="1.0"?>
<VTKFile type="PolyData" version="0.1" byte_order="LittleEndian" compressor="vtkZLibDataCompressor">
	<PolyData>
		<Piece NumberOfPoints="42" NumberOfVerts="0" NumberOfLines="0" NumberOfStrips="0" NumberOfPolys="80">
			<PointData Normals="Normals">
				<DataArray type="Float32" Name="Normals" NumberOfComponents="3" format="ascii">
				0.000000 0.000000 0.000000
				0.000000 0.000000 0.000000
				0.000000 0.000000 0.000000
				0.000000 0.000000 0.000000
				0.000000 0.000000 0.000000
				0.000000 0.000000 0.000000
				0.000000 0.000000 0.000000
				0.000000 0.000000 0.000000
				0.000000 0.000000 0.000000
				0.000000 0.000000 0.000000
				0.000000 0.000000 0.000000
				0.000000 0.000000 0.000000
				0.000000 0.000000 0.000000
				0.000000 0.000000 0.000000
				0.000000 0.000000 0.000000
				0.000000 0.000000 0.000000
				0.000000 0.000000 0.000000
				0.000000 0.000000 0.000000
				0.000000 0.000000 0.000000
				0.000000 0.000000 0.000000
				0.000000 0.000000 0.000000
				0.000000 0.000000 0.000000
				0.000000 0.000000 0.000000
				0.000000 0.000000 0.000000
				0.000000 0.000000 0.000000
				0.000000 0.000000 0.000000
				0.000000 0.000000 0.000000
				0.000000 0.000000 0.000000
				0.000000 0.000000 0.000000
				0.000000 0.000000 0.000000
				0.000000 0.000000 0.000000
				0.000000 0.000000 0.000000
				0.000000 0.000000 0.000000
				0.000000 0.000000 0.000000
				0.000000 0.000000 0.000000
				0.000000 0.000000 0.000000
				0.000000 0.000000 0.000000
				0.000000 0.000000 0.000000
				0.000000 0.000000 0.000000
				0.000000 0.000000 0.000000
				0.000000 0.000000 0.000000
				0.000000 0.000000 0.000000
				</DataArray>
			</PointData>
			<Points>
				<DataArray type="Float32" NumberOfComponents="3" format="ascii">
				0.004432 -0.132972 -0.001143
				0.003540 -0.133297 -0.007440
				-0.001727 -0.133890 -0.011988
				-0.006460 -0.133857 -0.007121
				-0.006040 -0.133676 -0.002004
				-0.000059 -0.165397 -0.003170
				0.002347 -0.138457 -0.000856
				0.002322 -0.138540 -0.006196
				-0.000292 -0.132841 0.001406
				-0.000368 -0.137815 0.001015
				-0.000726 -0.139330 -0.010805
				-0.005543 -0.139150 -0.006546
				-0.005159 -0.138791 -0.002233
				0.003231 -0.164341 -0.000185
				0.000849 -0.163643 0.000706
				-0.000455 -0.165052 -0.003035
				-0.002914 -0.160460 -0.003233
				0.001663 -0.162067 -0.006682
				0.004086 -0.159855 -0.002074
				0.001846 -0.144148 -0.000501
				0.001228 -0.143796 -0.004761
				-0.000282 -0.143019 0.000777
				-0.000772 -0.144858 -0.008713
				-0.003911 -0.143686 -0.000953
				-0.004575 -0.144435 -0.006097
				0.006914 -0.160062 0.001847
				0.003147 -0.163354 0.002991
				0.001637 -0.163425 0.002680
				0.001272 -0.158275 0.002287
				-0.001402 -0.159107 -0.000148
				-0.002487 -0.154019 -0.000001
				-0.003738 -0.155097 -0.004052
				0.000543 -0.156333 -0.005856
				0.002494 -0.154542 -0.002999
				0.003911 -0.155581 0.001592
				0.002273 -0.150258 0.000696
				0.001341 -0.149261 -0.003926
				-0.000421 -0.148151 0.001005
				-0.000568 -0.150694 -0.007460
				-0.003067 -0.148767 -0.000058
				-0.004083 -0.149739 -0.004931
				0.000478 -0.153195 0.001682
				</DataArray>
			</Points>
			<Polys>
				<DataArray type="Int32" Name="connectivity" format="ascii">
					0 1 2
					0 2 3
					0 3 4
					0 4 5
					1 0 6
					1 6 7
					0 8 9
					0 9 6
					2 1 7
					2 7 10
					3 2 10
					3 10 11
					4 3 11
					4 11 12
					8 4 12
					8 12 9
					5 13 14
					5 14 15
					16 17 5
					16 5 15
					17 18 13
					17 13 5
					7 6 19
					7 19 20
					6 9 21
					6 21 19
					10 7 20
					10 20 22
					9 12 23
					9 23 21
					11 10 22
					11 22 24
					12 11 24
					12 24 23
					18 25 26
					18 26 13
					13 26 27
					13 27 14
					28 29 14
					28 14 27
					29 16 15
					29 15 14
					30 31 16
					30 16 29
					31 32 17
					31 17 16
					32 33 18
					32 18 17
					33 34 25
					33 25 18
					20 19 35
					20 35 36
					19 21 37
					19 37 35
					22 20 36
					22 36 38
					21 23 39
					21 39 37
					24 22 38
					24 38 40
					23 24 40
					23 40 39
					25 28 27
					25 27 26
					34 41 28
					34 28 25
					41 30 29
					41 29 28
					37 39 30
					37 30 41
					39 40 31
					39 31 30
					40 38 32
					40 32 31
					38 36 33
					38 33 32
					36 35 34
					36 34 33
					35 37 41
					35 41 34
				</DataArray>
				<DataArray type="Int32" Name="offsets" format="ascii">
					3 6 9 12 15 18 21 24 27 30 33 36 39 42 45 48 51 54 57 60 63 66 69 72 75 78 81 84 87 90 93 96 99 102 105 108 111 114 117 120 123 126 129 132 135 138 141 144 147 150 153 156 159 162 165 168 171 174 177 180 183 186 189 192 195 198 201 204 207 210 213 216 219 222 225 228 231 234 237 240
				</DataArray>
			</Polys>
		</Piece>
	</PolyData>
</VTKFile>
