<?xml version="1.0"?>
<VTKFile type="PolyData" version="0.1" byte_order="LittleEndian" compressor="vtkZLibDataCompressor">
	<PolyData>
		<Piece NumberOfPoints="122" NumberOfVerts="0" NumberOfLines="0" NumberOfStrips="0" NumberOfPolys="240">
			<PointData Normals="Normals">
				<DataArray type="Float32" Name="Normals" NumberOfComponents="3" format="ascii">
				0.000000 0.000000 0.000000
				0.000000 0.000000 0.000000
				0.000000 0.000000 0.000000
				0.000000 0.000000 0.000000
				0.000000 0.000000 0.000000
				0.000000 0.000000 0.000000
				0.000000 0.000000 0.000000
				0.000000 0.000000 0.000000
				0.000000 0.000000 0.000000
				0.000000 0.000000 0.000000
				0.000000 0.000000 0.000000
				0.000000 0.000000 0.000000
				0.000000 0.000000 0.000000
				0.000000 0.000000 0.000000
				0.000000 0.000000 0.000000
				0.000000 0.000000 0.000000
				0.000000 0.000000 0.000000
				0.000000 0.000000 0.000000
				0.000000 0.000000 0.000000
				0.000000 0.000000 0.000000
				0.000000 0.000000 0.000000
				0.000000 0.000000 0.000000
				0.000000 0.000000 0.000000
				0.000000 0.000000 0.000000
				0.000000 0.000000 0.000000
				0.000000 0.000000 0.000000
				0.000000 0.000000 0.000000
				0.000000 0.000000 0.000000
				0.000000 0.000000 0.000000
				0.000000 0.000000 0.000000
				0.000000 0.000000 0.000000
				0.000000 0.000000 0.000000
				0.000000 0.000000 0.000000
				0.000000 0.000000 0.000000
				0.000000 0.000000 0.000000
				0.000000 0.000000 0.000000
				0.000000 0.000000 0.000000
				0.000000 0.000000 0.000000
				0.000000 0.000000 0.000000
				0.000000 0.000000 0.000000
				0.000000 0.000000 0.000000
				0.000000 0.000000 0.000000
				0.000000 0.000000 0.000000
				0.000000 0.000000 0.000000
				0.000000 0.000000 0.000000
				0.000000 0.000000 0.000000
				0.000000 0.000000 0.000000
				0.000000 0.000000 0.000000
				0.000000 0.000000 0.000000
				0.000000 0.000000 0.000000
				0.000000 0.000000 0.000000
				0.000000 0.000000 0.000000
				0.000000 0.000000 0.000000
				0.000000 0.000000 0.000000
				0.000000 0.000000 0.000000
				0.000000 0.000000 0.000000
				0.000000 0.000000 0.000000
				0.000000 0.000000 0.000000
				0.000000 0.000000 0.000000
				0.000000 0.000000 0.000000
				0.000000 0.000000 0.000000
				0.000000 0.000000 0.000000
				0.000000 0.000000 0.000000
				0.000000 0.000000 0.000000
				0.000000 0.000000 0.000000
				0.000000 0.000000 0.000000
				0.000000 0.000000 0.000000
				0.000000 0.000000 0.000000
				0.000000 0.000000 0.000000
				0.000000 0.000000 0.000000
				0.000000 0.000000 0.000000
				0.000000 0.000000 0.000000
				0.000000 0.000000 0.000000
				0.000000 0.000000 0.000000
				0.000000 0.000000 0.000000
				0.000000 0.000000 0.000000
				0.000000 0.000000 0.000000
				0.000000 0.000000 0.000000
				0.000000 0.000000 0.000000
				0.000000 0.000000 0.000000
				0.000000 0.000000 0.000000
				0.000000 0.000000 0.000000
				0.000000 0.000000 0.000000
				0.000000 0.000000 0.000000
				0.000000 0.000000 0.000000
				0.000000 0.000000 0.000000
				0.000000 0.000000 0.000000
				0.000000 0.000000 0.000000
				0.000000 0.000000 0.000000
				0.000000 0.000000 0.000000
				0.000000 0.000000 0.000000
				0.000000 0.000000 0.000000
				0.000000 0.000000 0.000000
				0.000000 0.000000 0.000000
				0.000000 0.000000 0.000000
				0.000000 0.000000 0.000000
				0.000000 0.000000 0.000000
				0.000000 0.000000 0.000000
				0.000000 0.000000 0.000000
				0.000000 0.000000 0.000000
				0.000000 0.000000 0.000000
				0.000000 0.000000 0.000000
				0.000000 0.000000 0.000000
				0.000000 0.000000 0.000000
				0.000000 0.000000 0.000000
				0.000000 0.000000 0.000000
				0.000000 0.000000 0.000000
				0.000000 0.000000 0.000000
				0.000000 0.000000 0.000000
				0.000000 0.000000 0.000000
				0.000000 0.000000 0.000000
				0.000000 0.000000 0.000000
				0.000000 0.000000 0.000000
				0.000000 0.000000 0.000000
				0.000000 0.000000 0.000000
				0.000000 0.000000 0.000000
				0.000000 0.000000 0.000000
				0.000000 0.000000 0.000000
				0.000000 0.000000 0.000000
				0.000000 0.000000 0.000000
				0.000000 0.000000 0.000000
				0.000000 0.000000 0.000000
				</DataArray>
			</PointData>
			<Points>
				<DataArray type="Float32" NumberOfComponents="3" format="ascii">
				-0.004000 -0.425441 -0.030000
				-0.004000 -0.431823 -0.024600
				-0.004000 -0.422082 -0.024060
				-0.004000 -0.410660 -0.020010
				-0.004000 -0.392520 -0.022440
				-0.004000 -0.382444 -0.024330
				-0.004000 -0.322989 -0.021090
				-0.004000 -0.255471 -0.020010
				-0.004000 -0.205421 -0.020010
				-0.004000 -0.154364 -0.021630
				-0.004000 -0.120437 -0.024330
				-0.004000 -0.083823 -0.026490
				-0.004000 -0.070387 -0.025950
				-0.004000 -0.065685 -0.030000
				-0.000350 -0.424433 -0.024976
				0.001713 -0.415363 -0.022137
				0.001237 -0.404111 -0.022792
				0.000126 -0.387819 -0.024321
				-0.000826 -0.365481 -0.025631
				0.000840 -0.301155 -0.023337
				0.001555 -0.226584 -0.022354
				0.001237 -0.176366 -0.022792
				0.000443 -0.125979 -0.023884
				0.000126 -0.101459 -0.024321
				0.001158 -0.081305 -0.022901
				-0.000429 -0.068708 -0.025085
				0.002676 -0.417044 -0.027831
				0.008839 -0.408645 -0.025828
				0.003447 -0.397560 -0.027580
				0.002162 -0.383116 -0.027997
				0.000879 -0.348518 -0.028414
				0.003190 -0.279321 -0.027664
				0.004474 -0.197696 -0.027247
				0.003447 -0.147310 -0.027580
				0.002420 -0.097595 -0.027914
				0.003960 -0.082480 -0.027413
				0.009352 -0.078786 -0.025661
				0.003704 -0.067028 -0.027497
				0.002676 -0.417044 -0.032169
				0.008839 -0.408645 -0.034171
				0.003447 -0.397560 -0.032420
				0.002162 -0.383116 -0.032002
				0.000879 -0.348518 -0.031586
				0.003190 -0.279321 -0.032336
				0.004474 -0.197696 -0.032753
				0.003447 -0.147310 -0.032420
				0.002420 -0.097595 -0.032086
				0.003960 -0.082480 -0.032587
				0.009352 -0.078786 -0.034339
				0.003704 -0.067028 -0.032503
				0.001476 -0.419899 -0.037536
				0.004094 -0.409821 -0.041140
				-0.000270 -0.394706 -0.035134
				-0.000509 -0.370015 -0.034805
				-0.000985 -0.301996 -0.034150
				-0.000905 -0.218354 -0.034260
				0.000364 -0.160746 -0.036007
				0.001555 -0.121949 -0.037645
				0.003538 -0.091717 -0.040376
				0.003856 -0.077777 -0.040813
				0.003141 -0.072571 -0.039830
				-0.000191 -0.064341 -0.035242
				-0.004000 -0.422753 -0.041610
				-0.004000 -0.410996 -0.044040
				-0.004000 -0.391850 -0.034860
				-0.004000 -0.356915 -0.035400
				-0.004000 -0.255471 -0.035130
				-0.004000 -0.157387 -0.032970
				-0.004000 -0.123797 -0.035940
				-0.004000 -0.096588 -0.041070
				-0.004000 -0.085840 -0.048900
				-0.004000 -0.073075 -0.048360
				-0.004000 -0.066356 -0.040260
				-0.004000 -0.061653 -0.034860
				-0.008047 -0.425945 -0.035570
				-0.010665 -0.415029 -0.039175
				-0.009713 -0.402096 -0.037863
				-0.010110 -0.380934 -0.038410
				-0.008285 -0.328532 -0.035898
				-0.006460 -0.269580 -0.033386
				-0.006777 -0.219362 -0.033822
				-0.008443 -0.156043 -0.036116
				-0.010745 -0.117079 -0.039284
				-0.011221 -0.094405 -0.039939
				-0.011935 -0.069043 -0.040922
				-0.007095 -0.059135 -0.034260
				-0.006055 -0.429136 -0.030668
				-0.012217 -0.419059 -0.032670
				-0.017866 -0.412340 -0.034505
				-0.018637 -0.404950 -0.034756
				-0.012987 -0.401592 -0.032921
				-0.009135 -0.381773 -0.031669
				-0.007338 -0.314928 -0.031084
				-0.007852 -0.215499 -0.031252
				-0.007852 -0.148318 -0.031252
				-0.009906 -0.115734 -0.031919
				-0.019921 -0.071731 -0.035173
				-0.009393 -0.056615 -0.031752
				-0.006055 -0.429136 -0.029332
				-0.012217 -0.419059 -0.027330
				-0.017866 -0.412340 -0.025495
				-0.018637 -0.404950 -0.025244
				-0.012987 -0.401592 -0.027079
				-0.009135 -0.381773 -0.028331
				-0.007338 -0.314928 -0.028916
				-0.007852 -0.215499 -0.028748
				-0.007852 -0.148318 -0.028748
				-0.009906 -0.115734 -0.028081
				-0.019921 -0.071731 -0.024827
				-0.009393 -0.056615 -0.028248
				-0.006222 -0.430480 -0.026942
				-0.008285 -0.420571 -0.024102
				-0.011221 -0.411500 -0.020061
				-0.010745 -0.398736 -0.020716
				-0.008443 -0.392018 -0.023884
				-0.008206 -0.352382 -0.024211
				-0.007967 -0.285200 -0.024539
				-0.008126 -0.210460 -0.024321
				-0.007650 -0.151340 -0.024976
				-0.007491 -0.118086 -0.025195
				-0.009952 -0.077777 -0.021809
				-0.006857 -0.063501 -0.026068
				</DataArray>
			</Points>
			<Polys>
				<DataArray type="Int32" Name="connectivity" format="ascii">
					14 1 0
					14 15 2
					14 2 1
					15 16 3
					15 3 2
					16 17 4
					16 4 3
					17 18 5
					17 5 4
					18 19 6
					18 6 5
					19 20 7
					19 7 6
					20 21 8
					20 8 7
					21 22 9
					21 9 8
					22 23 10
					22 10 9
					23 24 11
					23 11 10
					24 25 12
					24 12 11
					25 13 12
					26 14 0
					26 27 15
					26 15 14
					27 28 16
					27 16 15
					28 29 17
					28 17 16
					29 30 18
					29 18 17
					30 31 19
					30 19 18
					31 32 20
					31 20 19
					32 33 21
					32 21 20
					33 34 22
					33 22 21
					34 35 23
					34 23 22
					35 36 24
					35 24 23
					36 37 25
					36 25 24
					37 13 25
					38 26 0
					38 39 27
					38 27 26
					39 40 28
					39 28 27
					40 41 29
					40 29 28
					41 42 30
					41 30 29
					42 43 31
					42 31 30
					43 44 32
					43 32 31
					44 45 33
					44 33 32
					45 46 34
					45 34 33
					46 47 35
					46 35 34
					47 48 36
					47 36 35
					48 49 37
					48 37 36
					49 13 37
					50 38 0
					50 51 39
					50 39 38
					51 52 40
					51 40 39
					52 53 41
					52 41 40
					53 54 42
					53 42 41
					54 55 43
					54 43 42
					55 56 44
					55 44 43
					56 57 45
					56 45 44
					57 58 46
					57 46 45
					58 59 47
					58 47 46
					59 60 48
					59 48 47
					60 61 49
					60 49 48
					61 13 49
					62 50 0
					62 63 51
					62 51 50
					63 64 52
					63 52 51
					64 65 53
					64 53 52
					65 66 54
					65 54 53
					66 67 55
					66 55 54
					67 68 56
					67 56 55
					68 69 57
					68 57 56
					69 70 58
					69 58 57
					70 71 59
					70 59 58
					71 72 60
					71 60 59
					72 73 61
					72 61 60
					73 13 61
					74 62 0
					74 75 63
					74 63 62
					75 76 64
					75 64 63
					76 77 65
					76 65 64
					77 78 66
					77 66 65
					78 79 67
					78 67 66
					79 80 68
					79 68 67
					80 81 69
					80 69 68
					81 82 70
					81 70 69
					82 83 71
					82 71 70
					83 84 72
					83 72 71
					84 85 73
					84 73 72
					85 13 73
					86 74 0
					86 87 75
					86 75 74
					87 88 76
					87 76 75
					88 89 77
					88 77 76
					89 90 78
					89 78 77
					90 91 79
					90 79 78
					91 92 80
					91 80 79
					92 93 81
					92 81 80
					93 94 82
					93 82 81
					94 95 83
					94 83 82
					95 96 84
					95 84 83
					96 97 85
					96 85 84
					97 13 85
					98 86 0
					98 99 87
					98 87 86
					99 100 88
					99 88 87
					100 101 89
					100 89 88
					101 102 90
					101 90 89
					102 103 91
					102 91 90
					103 104 92
					103 92 91
					104 105 93
					104 93 92
					105 106 94
					105 94 93
					106 107 95
					106 95 94
					107 108 96
					107 96 95
					108 109 97
					108 97 96
					109 13 97
					110 98 0
					110 111 99
					110 99 98
					111 112 100
					111 100 99
					112 113 101
					112 101 100
					113 114 102
					113 102 101
					114 115 103
					114 103 102
					115 116 104
					115 104 103
					116 117 105
					116 105 104
					117 118 106
					117 106 105
					118 119 107
					118 107 106
					119 120 108
					119 108 107
					120 121 109
					120 109 108
					121 13 109
					1 110 0
					1 2 111
					1 111 110
					2 3 112
					2 112 111
					3 4 113
					3 113 112
					4 5 114
					4 114 113
					5 6 115
					5 115 114
					6 7 116
					6 116 115
					7 8 117
					7 117 116
					8 9 118
					8 118 117
					9 10 119
					9 119 118
					10 11 120
					10 120 119
					11 12 121
					11 121 120
					12 13 121
				</DataArray>
				<DataArray type="Int32" Name="offsets" format="ascii">
					3 6 9 12 15 18 21 24 27 30 33 36 39 42 45 48 51 54 57 60 63 66 69 72 75 78 81 84 87 90 93 96 99 102 105 108 111 114 117 120 123 126 129 132 135 138 141 144 147 150 153 156 159 162 165 168 171 174 177 180 183 186 189 192 195 198 201 204 207 210 213 216 219 222 225 228 231 234 237 240 243 246 249 252 255 258 261 264 267 270 273 276 279 282 285 288 291 294 297 300 303 306 309 312 315 318 321 324 327 330 333 336 339 342 345 348 351 354 357 360 363 366 369 372 375 378 381 384 387 390 393 396 399 402 405 408 411 414 417 420 423 426 429 432 435 438 441 444 447 450 453 456 459 462 465 468 471 474 477 480 483 486 489 492 495 498 501 504 507 510 513 516 519 522 525 528 531 534 537 540 543 546 549 552 555 558 561 564 567 570 573 576 579 582 585 588 591 594 597 600 603 606 609 612 615 618 621 624 627 630 633 636 639 642 645 648 651 654 657 660 663 666 669 672 675 678 681 684 687 690 693 696 699 702 705 708 711 714 717 720
				</DataArray>
			</Polys>
		</Piece>
	</PolyData>
</VTKFile>
