<?xml version="1.0"?>
<VTKFile type="PolyData" version="0.1" byte_order="LittleEndian" compressor="vtkZLibDataCompressor">
	<PolyData>
		<Piece NumberOfPoints="72" NumberOfVerts="0" NumberOfLines="0" NumberOfStrips="0" NumberOfPolys="140">
			<PointData Normals="Normals">
				<DataArray type="Float32" Name="Normals" NumberOfComponents="3" format="ascii">
				0.000000 0.000000 0.000000
				0.000000 0.000000 0.000000
				0.000000 0.000000 0.000000
				0.000000 0.000000 0.000000
				0.000000 0.000000 0.000000
				0.000000 0.000000 0.000000
				0.000000 0.000000 0.000000
				0.000000 0.000000 0.000000
				0.000000 0.000000 0.000000
				0.000000 0.000000 0.000000
				0.000000 0.000000 0.000000
				0.000000 0.000000 0.000000
				0.000000 0.000000 0.000000
				0.000000 0.000000 0.000000
				0.000000 0.000000 0.000000
				0.000000 0.000000 0.000000
				0.000000 0.000000 0.000000
				0.000000 0.000000 0.000000
				0.000000 0.000000 0.000000
				0.000000 0.000000 0.000000
				0.000000 0.000000 0.000000
				0.000000 0.000000 0.000000
				0.000000 0.000000 0.000000
				0.000000 0.000000 0.000000
				0.000000 0.000000 0.000000
				0.000000 0.000000 0.000000
				0.000000 0.000000 0.000000
				0.000000 0.000000 0.000000
				0.000000 0.000000 0.000000
				0.000000 0.000000 0.000000
				0.000000 0.000000 0.000000
				0.000000 0.000000 0.000000
				0.000000 0.000000 0.000000
				0.000000 0.000000 0.000000
				0.000000 0.000000 0.000000
				0.000000 0.000000 0.000000
				0.000000 0.000000 0.000000
				0.000000 0.000000 0.000000
				0.000000 0.000000 0.000000
				0.000000 0.000000 0.000000
				0.000000 0.000000 0.000000
				0.000000 0.000000 0.000000
				0.000000 0.000000 0.000000
				0.000000 0.000000 0.000000
				0.000000 0.000000 0.000000
				0.000000 0.000000 0.000000
				0.000000 0.000000 0.000000
				0.000000 0.000000 0.000000
				0.000000 0.000000 0.000000
				0.000000 0.000000 0.000000
				0.000000 0.000000 0.000000
				0.000000 0.000000 0.000000
				0.000000 0.000000 0.000000
				0.000000 0.000000 0.000000
				0.000000 0.000000 0.000000
				0.000000 0.000000 0.000000
				0.000000 0.000000 0.000000
				0.000000 0.000000 0.000000
				0.000000 0.000000 0.000000
				0.000000 0.000000 0.000000
				0.000000 0.000000 0.000000
				0.000000 0.000000 0.000000
				0.000000 0.000000 0.000000
				0.000000 0.000000 0.000000
				0.000000 0.000000 0.000000
				0.000000 0.000000 0.000000
				0.000000 0.000000 0.000000
				0.000000 0.000000 0.000000
				0.000000 0.000000 0.000000
				0.000000 0.000000 0.000000
				0.000000 0.000000 0.000000
				0.000000 0.000000 0.000000
				</DataArray>
			</PointData>
			<Points>
				<DataArray type="Float32" NumberOfComponents="3" format="ascii">
				0.000000 0.052920 0.000000
				0.000000 0.050274 -0.012600
				0.000000 0.044982 -0.021764
				0.000000 0.035280 -0.024709
				0.000000 0.023814 -0.021436
				0.000000 0.018345 -0.015546
				0.000000 0.008643 -0.013418
				0.000000 0.004233 -0.008182
				0.000000 0.000000 0.000000
				0.005482 0.049127 -0.007546
				0.010147 0.044365 -0.013966
				0.012023 0.033957 -0.016548
				0.011013 0.023814 -0.015158
				0.008512 0.016493 -0.011716
				0.006925 0.008732 -0.009531
				0.003991 0.003969 -0.005495
				0.005758 0.047980 -0.001871
				0.012139 0.043747 -0.003944
				0.015407 0.032634 -0.005006
				0.015251 0.023814 -0.004955
				0.012761 0.014641 -0.004146
				0.009649 0.008820 -0.003135
				0.005135 0.003705 -0.001669
				0.005758 0.047980 0.001871
				0.012139 0.043747 0.003944
				0.015407 0.032634 0.005006
				0.015251 0.023814 0.004955
				0.012761 0.014641 0.004146
				0.009649 0.008820 0.003135
				0.005135 0.003705 0.001669
				0.003895 0.049744 0.005362
				0.008993 0.046569 0.012378
				0.012600 0.034927 0.017343
				0.011590 0.023460 0.015953
				0.009089 0.016229 0.012511
				0.007551 0.008556 0.010392
				0.004617 0.003440 0.006355
				0.000000 0.051509 0.007200
				0.000000 0.049392 0.017836
				0.000000 0.037220 0.026673
				0.000000 0.023109 0.023400
				0.000000 0.017816 0.017509
				0.000000 0.008291 0.015546
				0.000000 0.003174 0.010309
				-0.003367 0.051596 0.004633
				-0.006781 0.045599 0.009333
				-0.008752 0.035986 0.012047
				-0.007935 0.025225 0.010922
				-0.008464 0.015171 0.011650
				-0.007551 0.007761 0.010392
				-0.005049 0.003087 0.006950
				-0.004046 0.051685 0.001315
				-0.004981 0.041807 0.001618
				-0.002957 0.034751 0.000961
				-0.003424 0.027342 0.001112
				-0.010738 0.012524 0.003489
				-0.009649 0.007232 0.003135
				-0.006536 0.002999 0.002124
				-0.004046 0.051685 -0.001315
				-0.004981 0.041807 -0.001618
				-0.002957 0.034751 -0.000961
				-0.003424 0.027342 -0.001112
				-0.010738 0.012524 -0.003489
				-0.009649 0.007232 -0.003135
				-0.006536 0.002999 -0.002124
				-0.004954 0.050979 -0.006818
				-0.007935 0.043395 -0.010922
				-0.008176 0.035015 -0.011253
				-0.007358 0.025577 -0.010128
				-0.007887 0.015435 -0.010856
				-0.006925 0.007937 -0.009531
				-0.004424 0.003616 -0.006089
				</DataArray>
			</Points>
			<Polys>
				<DataArray type="Int32" Name="connectivity" format="ascii">
					9 1 0
					9 10 2
					9 2 1
					10 11 3
					10 3 2
					11 12 4
					11 4 3
					12 13 5
					12 5 4
					13 14 6
					13 6 5
					14 15 7
					14 7 6
					15 8 7
					16 9 0
					16 17 10
					16 10 9
					17 18 11
					17 11 10
					18 19 12
					18 12 11
					19 20 13
					19 13 12
					20 21 14
					20 14 13
					21 22 15
					21 15 14
					22 8 15
					23 16 0
					23 24 17
					23 17 16
					24 25 18
					24 18 17
					25 26 19
					25 19 18
					26 27 20
					26 20 19
					27 28 21
					27 21 20
					28 29 22
					28 22 21
					29 8 22
					30 23 0
					30 31 24
					30 24 23
					31 32 25
					31 25 24
					32 33 26
					32 26 25
					33 34 27
					33 27 26
					34 35 28
					34 28 27
					35 36 29
					35 29 28
					36 8 29
					37 30 0
					37 38 31
					37 31 30
					38 39 32
					38 32 31
					39 40 33
					39 33 32
					40 41 34
					40 34 33
					41 42 35
					41 35 34
					42 43 36
					42 36 35
					43 8 36
					44 37 0
					44 45 38
					44 38 37
					45 46 39
					45 39 38
					46 47 40
					46 40 39
					47 48 41
					47 41 40
					48 49 42
					48 42 41
					49 50 43
					49 43 42
					50 8 43
					51 44 0
					51 52 45
					51 45 44
					52 53 46
					52 46 45
					53 54 47
					53 47 46
					54 55 48
					54 48 47
					55 56 49
					55 49 48
					56 57 50
					56 50 49
					57 8 50
					58 51 0
					58 59 52
					58 52 51
					59 60 53
					59 53 52
					60 61 54
					60 54 53
					61 62 55
					61 55 54
					62 63 56
					62 56 55
					63 64 57
					63 57 56
					64 8 57
					65 58 0
					65 66 59
					65 59 58
					66 67 60
					66 60 59
					67 68 61
					67 61 60
					68 69 62
					68 62 61
					69 70 63
					69 63 62
					70 71 64
					70 64 63
					71 8 64
					1 65 0
					1 2 66
					1 66 65
					2 3 67
					2 67 66
					3 4 68
					3 68 67
					4 5 69
					4 69 68
					5 6 70
					5 70 69
					6 7 71
					6 71 70
					7 8 71
				</DataArray>
				<DataArray type="Int32" Name="offsets" format="ascii">
					3 6 9 12 15 18 21 24 27 30 33 36 39 42 45 48 51 54 57 60 63 66 69 72 75 78 81 84 87 90 93 96 99 102 105 108 111 114 117 120 123 126 129 132 135 138 141 144 147 150 153 156 159 162 165 168 171 174 177 180 183 186 189 192 195 198 201 204 207 210 213 216 219 222 225 228 231 234 237 240 243 246 249 252 255 258 261 264 267 270 273 276 279 282 285 288 291 294 297 300 303 306 309 312 315 318 321 324 327 330 333 336 339 342 345 348 351 354 357 360 363 366 369 372 375 378 381 384 387 390 393 396 399 402 405 408 411 414 417 420
				</DataArray>
			</Polys>
		</Piece>
	</PolyData>
</VTKFile>
