<?xml version="1.0"?>
<VTKFile type="PolyData" version="0.1" byte_order="LittleEndian" compressor="vtkZLibDataCompressor">
	<PolyData>
		<Piece NumberOfPoints="58" NumberOfVerts="0" NumberOfLines="0" NumberOfStrips="0" NumberOfPolys="112">
			<PointData Normals="Normals">
				<DataArray type="Float32" Name="Normals" NumberOfComponents="3" format="ascii">
				0.000000 0.000000 0.000000
				0.000000 0.000000 0.000000
				0.000000 0.000000 0.000000
				0.000000 0.000000 0.000000
				0.000000 0.000000 0.000000
				0.000000 0.000000 0.000000
				0.000000 0.000000 0.000000
				0.000000 0.000000 0.000000
				0.000000 0.000000 0.000000
				0.000000 0.000000 0.000000
				0.000000 0.000000 0.000000
				0.000000 0.000000 0.000000
				0.000000 0.000000 0.000000
				0.000000 0.000000 0.000000
				0.000000 0.000000 0.000000
				0.000000 0.000000 0.000000
				0.000000 0.000000 0.000000
				0.000000 0.000000 0.000000
				0.000000 0.000000 0.000000
				0.000000 0.000000 0.000000
				0.000000 0.000000 0.000000
				0.000000 0.000000 0.000000
				0.000000 0.000000 0.000000
				0.000000 0.000000 0.000000
				0.000000 0.000000 0.000000
				0.000000 0.000000 0.000000
				0.000000 0.000000 0.000000
				0.000000 0.000000 0.000000
				0.000000 0.000000 0.000000
				0.000000 0.000000 0.000000
				0.000000 0.000000 0.000000
				0.000000 0.000000 0.000000
				0.000000 0.000000 0.000000
				0.000000 0.000000 0.000000
				0.000000 0.000000 0.000000
				0.000000 0.000000 0.000000
				0.000000 0.000000 0.000000
				0.000000 0.000000 0.000000
				0.000000 0.000000 0.000000
				0.000000 0.000000 0.000000
				0.000000 0.000000 0.000000
				0.000000 0.000000 0.000000
				0.000000 0.000000 0.000000
				0.000000 0.000000 0.000000
				0.000000 0.000000 0.000000
				0.000000 0.000000 0.000000
				0.000000 0.000000 0.000000
				0.000000 0.000000 0.000000
				0.000000 0.000000 0.000000
				0.000000 0.000000 0.000000
				0.000000 0.000000 0.000000
				0.000000 0.000000 0.000000
				0.000000 0.000000 0.000000
				0.000000 0.000000 0.000000
				0.000000 0.000000 0.000000
				0.000000 0.000000 0.000000
				0.000000 0.000000 0.000000
				0.000000 0.000000 0.000000
				</DataArray>
			</PointData>
			<Points>
				<DataArray type="Float32" NumberOfComponents="3" format="ascii">
				-0.004229 -0.004829 -0.005349
				-0.002865 -0.007088 -0.004374
				-0.006566 -0.006003 0.001573
				-0.006273 -0.003629 -0.001097
				-0.001082 -0.000770 -0.008076
				0.001133 -0.004455 -0.009774
				-0.005474 0.001047 -0.003700
				0.006614 -0.007032 -0.004328
				0.004773 -0.005536 0.003206
				0.007106 -0.004001 -0.005876
				-0.007561 -0.005966 0.005753
				-0.006931 -0.001877 0.000275
				0.002732 -0.004935 0.007020
				-0.001528 0.003581 -0.006518
				0.003826 0.001652 -0.006397
				0.007887 0.001949 -0.005346
				-0.004954 0.002921 -0.003695
				-0.006088 0.003721 -0.001201
				-0.006753 0.002577 0.001461
				-0.006897 0.000436 0.001051
				0.009807 -0.005806 0.000598
				0.008344 -0.003842 0.003358
				0.010636 -0.001410 -0.002988
				0.005246 -0.002068 0.007247
				0.010477 0.003011 -0.002384
				-0.007569 -0.000588 0.007151
				0.002160 0.004144 0.008958
				0.005470 0.001128 0.007857
				-0.004845 0.006917 -0.002285
				0.006546 0.005541 -0.000405
				0.007782 0.005262 0.000603
				-0.004775 0.010536 0.008602
				-0.008121 0.004454 0.007296
				0.013667 -0.001136 -0.001493
				0.012193 -0.006238 0.002040
				0.011771 -0.005209 0.002616
				0.011350 -0.004180 0.003193
				0.010140 -0.001575 0.002953
				0.014586 0.002657 -0.000236
				0.009727 0.000306 0.003070
				0.011797 0.003819 0.000077
				0.003770 0.006495 0.009073
				0.006820 0.004151 0.007665
				0.010089 0.002058 0.002748
				0.004564 0.012108 0.006199
				0.007044 0.007240 0.004831
				0.011672 0.002899 0.001768
				0.017491 0.000246 0.002915
				0.017426 -0.002605 0.002670
				0.017281 0.000042 0.004455
				0.016891 -0.003481 0.002721
				0.016356 -0.004358 0.002772
				0.015488 -0.005207 0.003968
				0.015638 -0.004558 0.004542
				0.016712 -0.001315 0.005509
				0.015786 -0.003907 0.005117
				0.016303 -0.002997 0.005534
				0.016537 -0.002814 0.004020
				</DataArray>
			</Points>
			<Polys>
				<DataArray type="Int32" Name="connectivity" format="ascii">
					0 1 2
					0 2 3
					4 5 1
					4 1 0
					0 3 6
					4 0 6
					1 7 8
					1 8 2
					5 9 7
					5 7 1
					3 2 10
					3 10 11
					2 8 12
					2 12 10
					3 11 6
					13 14 5
					13 5 4
					13 4 6
					14 15 9
					14 9 5
					16 13 6
					17 16 6
					18 17 6
					19 18 6
					11 19 6
					7 20 21
					7 21 8
					9 22 20
					9 20 7
					8 21 23
					8 23 12
					15 24 22
					15 22 9
					11 10 25
					11 25 19
					10 12 26
					10 26 25
					12 23 27
					12 27 26
					16 28 14
					16 14 13
					28 29 15
					28 15 14
					29 30 24
					29 24 15
					17 31 28
					17 28 16
					18 32 31
					18 31 17
					19 25 32
					19 32 18
					22 33 34
					22 34 20
					34 35 36
					34 36 21
					34 21 20
					21 36 37
					21 37 23
					24 38 33
					24 33 22
					23 37 39
					23 39 27
					30 40 38
					30 38 24
					25 26 41
					25 41 32
					26 27 42
					26 42 41
					27 39 43
					27 43 42
					31 44 29
					31 29 28
					44 45 30
					44 30 29
					45 46 40
					45 40 30
					32 41 44
					32 44 31
					33 47 48
					33 48 34
					38 49 47
					38 47 33
					34 48 50
					34 50 35
					35 50 51
					35 51 36
					36 51 52
					36 52 37
					37 52 53
					37 53 39
					40 54 49
					40 49 38
					39 53 55
					39 55 43
					46 56 54
					46 54 40
					41 42 45
					41 45 44
					42 43 46
					42 46 45
					43 55 56
					43 56 46
					57 48 47
					57 47 49
					57 50 48
					57 49 54
					57 51 50
					57 52 51
					57 53 52
					57 55 53
					57 54 56
					57 56 55
				</DataArray>
				<DataArray type="Int32" Name="offsets" format="ascii">
					3 6 9 12 15 18 21 24 27 30 33 36 39 42 45 48 51 54 57 60 63 66 69 72 75 78 81 84 87 90 93 96 99 102 105 108 111 114 117 120 123 126 129 132 135 138 141 144 147 150 153 156 159 162 165 168 171 174 177 180 183 186 189 192 195 198 201 204 207 210 213 216 219 222 225 228 231 234 237 240 243 246 249 252 255 258 261 264 267 270 273 276 279 282 285 288 291 294 297 300 303 306 309 312 315 318 321 324 327 330 333 336
				</DataArray>
			</Polys>
		</Piece>
	</PolyData>
</VTKFile>
