<?xml version="1.0"?>
<VTKFile type="PolyData" version="0.1" byte_order="LittleEndian" compressor="vtkZLibDataCompressor">
	<PolyData>
		<Piece NumberOfPoints="42" NumberOfVerts="0" NumberOfLines="0" NumberOfStrips="0" NumberOfPolys="80">
			<PointData Normals="Normals">
				<DataArray type="Float32" Name="Normals" NumberOfComponents="3" format="ascii">
				0.000000 0.000000 0.000000
				0.000000 0.000000 0.000000
				0.000000 0.000000 0.000000
				0.000000 0.000000 0.000000
				0.000000 0.000000 0.000000
				0.000000 0.000000 0.000000
				0.000000 0.000000 0.000000
				0.000000 0.000000 0.000000
				0.000000 0.000000 0.000000
				0.000000 0.000000 0.000000
				0.000000 0.000000 0.000000
				0.000000 0.000000 0.000000
				0.000000 0.000000 0.000000
				0.000000 0.000000 0.000000
				0.000000 0.000000 0.000000
				0.000000 0.000000 0.000000
				0.000000 0.000000 0.000000
				0.000000 0.000000 0.000000
				0.000000 0.000000 0.000000
				0.000000 0.000000 0.000000
				0.000000 0.000000 0.000000
				0.000000 0.000000 0.000000
				0.000000 0.000000 0.000000
				0.000000 0.000000 0.000000
				0.000000 0.000000 0.000000
				0.000000 0.000000 0.000000
				0.000000 0.000000 0.000000
				0.000000 0.000000 0.000000
				0.000000 0.000000 0.000000
				0.000000 0.000000 0.000000
				0.000000 0.000000 0.000000
				0.000000 0.000000 0.000000
				0.000000 0.000000 0.000000
				0.000000 0.000000 0.000000
				0.000000 0.000000 0.000000
				0.000000 0.000000 0.000000
				0.000000 0.000000 0.000000
				0.000000 0.000000 0.000000
				0.000000 0.000000 0.000000
				0.000000 0.000000 0.000000
				0.000000 0.000000 0.000000
				0.000000 0.000000 0.000000
				</DataArray>
			</PointData>
			<Points>
				<DataArray type="Float32" NumberOfComponents="3" format="ascii">
				0.006891 -0.001473 0.000660
				0.003890 -0.005518 0.001042
				0.004963 -0.002539 -0.006517
				0.006978 -0.000139 -0.003091
				0.005750 0.000954 0.005476
				0.004261 -0.001703 0.007048
				0.007134 0.000763 0.002405
				0.007075 0.000940 0.001030
				0.007015 0.001340 0.002984
				-0.009871 -0.008856 0.002006
				-0.006400 -0.006064 -0.004010
				-0.012155 -0.004439 0.005003
				0.001373 -0.002229 -0.013051
				0.006504 0.000655 -0.006021
				-0.002047 -0.002706 -0.007593
				0.007251 0.002019 0.000307
				0.005318 0.003624 0.005716
				0.002826 0.004696 0.007004
				0.006897 0.001917 0.003563
				-0.011221 0.001353 0.001211
				0.007057 0.002069 0.002076
				-0.010294 -0.003841 -0.001900
				-0.008812 -0.002522 -0.004577
				-0.011567 -0.003583 0.000183
				-0.007220 -0.001695 -0.006724
				-0.011552 -0.000480 -0.001346
				0.001564 0.002100 -0.013089
				0.005885 0.002215 -0.006998
				-0.003730 0.000832 -0.004866
				0.007316 0.003033 0.000571
				-0.007727 0.000076 -0.006474
				0.004915 0.006044 0.003451
				0.003122 0.007898 0.001641
				0.006801 0.003035 0.003444
				-0.005395 0.005758 0.000901
				-0.009972 0.000443 -0.003212
				0.006965 0.003506 0.002304
				-0.009488 -0.001386 -0.003562
				0.003263 0.006091 -0.007377
				0.006087 0.004093 -0.003166
				-0.004290 0.004267 -0.002670
				-0.008758 0.000516 -0.004444
				</DataArray>
			</Points>
			<Polys>
				<DataArray type="Int32" Name="connectivity" format="ascii">
					0 1 2
					0 2 3
					4 5 1
					4 1 0
					6 0 3
					6 3 7
					8 4 0
					8 0 6
					1 9 10
					1 10 2
					5 11 9
					5 9 1
					3 2 12
					3 12 13
					2 10 14
					2 14 12
					7 3 13
					7 13 15
					16 17 5
					16 5 4
					18 16 4
					18 4 8
					17 19 11
					17 11 5
					20 6 7
					20 8 6
					20 7 15
					20 18 8
					9 21 22
					9 22 10
					11 23 21
					11 21 9
					10 22 24
					10 24 14
					19 25 23
					19 23 11
					13 12 26
					13 26 27
					12 14 28
					12 28 26
					15 13 27
					15 27 29
					14 24 30
					14 30 28
					20 15 29
					31 32 17
					31 17 16
					33 31 16
					33 16 18
					32 34 19
					32 19 17
					20 33 18
					34 35 25
					34 25 19
					20 29 36
					20 36 33
					22 21 37
					21 23 37
					24 22 37
					23 25 37
					30 24 37
					25 35 37
					27 26 38
					27 38 39
					26 28 40
					26 40 38
					29 27 39
					29 39 36
					28 30 41
					28 41 40
					41 30 37
					39 38 32
					39 32 31
					36 39 31
					36 31 33
					38 40 34
					38 34 32
					40 41 35
					40 35 34
					35 41 37
				</DataArray>
				<DataArray type="Int32" Name="offsets" format="ascii">
					3 6 9 12 15 18 21 24 27 30 33 36 39 42 45 48 51 54 57 60 63 66 69 72 75 78 81 84 87 90 93 96 99 102 105 108 111 114 117 120 123 126 129 132 135 138 141 144 147 150 153 156 159 162 165 168 171 174 177 180 183 186 189 192 195 198 201 204 207 210 213 216 219 222 225 228 231 234 237 240
				</DataArray>
			</Polys>
		</Piece>
	</PolyData>
</VTKFile>
