<?xml version="1.0"?>
<VTKFile type="PolyData" version="0.1" byte_order="LittleEndian" compressor="vtkZLibDataCompressor">
	<PolyData>
		<Piece NumberOfPoints="34" NumberOfVerts="0" NumberOfLines="0" NumberOfStrips="0" NumberOfPolys="64">
			<PointData Normals="Normals">
				<DataArray type="Float32" Name="Normals" NumberOfComponents="3" format="ascii">
				0.000000 0.000000 0.000000
				0.000000 0.000000 0.000000
				0.000000 0.000000 0.000000
				0.000000 0.000000 0.000000
				0.000000 0.000000 0.000000
				0.000000 0.000000 0.000000
				0.000000 0.000000 0.000000
				0.000000 0.000000 0.000000
				0.000000 0.000000 0.000000
				0.000000 0.000000 0.000000
				0.000000 0.000000 0.000000
				0.000000 0.000000 0.000000
				0.000000 0.000000 0.000000
				0.000000 0.000000 0.000000
				0.000000 0.000000 0.000000
				0.000000 0.000000 0.000000
				0.000000 0.000000 0.000000
				0.000000 0.000000 0.000000
				0.000000 0.000000 0.000000
				0.000000 0.000000 0.000000
				0.000000 0.000000 0.000000
				0.000000 0.000000 0.000000
				0.000000 0.000000 0.000000
				0.000000 0.000000 0.000000
				0.000000 0.000000 0.000000
				0.000000 0.000000 0.000000
				0.000000 0.000000 0.000000
				0.000000 0.000000 0.000000
				0.000000 0.000000 0.000000
				0.000000 0.000000 0.000000
				0.000000 0.000000 0.000000
				0.000000 0.000000 0.000000
				0.000000 0.000000 0.000000
				0.000000 0.000000 0.000000
				</DataArray>
			</PointData>
			<Points>
				<DataArray type="Float32" NumberOfComponents="3" format="ascii">
				0.004070 -0.000240 -0.003915
				0.002610 0.000040 -0.006636
				0.003579 0.002747 -0.007584
				0.004524 0.000776 -0.004076
				0.003622 -0.001828 -0.002859
				0.002133 -0.004828 -0.003341
				0.004065 -0.000854 -0.001893
				-0.011735 -0.005728 -0.002531
				-0.009483 0.000794 -0.005580
				-0.004060 0.004839 -0.006146
				0.004894 0.002833 -0.004223
				0.004550 0.001047 -0.002867
				-0.005440 0.006400 -0.002611
				0.003989 -0.002322 -0.001104
				0.002851 -0.004793 -0.000217
				-0.012431 -0.004698 0.002888
				0.003781 -0.001914 -0.000215
				0.004237 -0.000609 -0.000827
				0.003748 -0.001741 0.000719
				-0.012688 -0.001687 0.002129
				-0.012140 -0.001458 -0.000419
				-0.011307 0.000766 -0.001473
				-0.010545 0.002319 -0.001916
				-0.008764 0.004425 0.000480
				0.006093 0.003010 -0.000304
				-0.006400 0.007489 0.003696
				-0.008050 0.005300 0.002292
				0.001992 -0.003969 0.002997
				-0.010849 -0.002177 0.006167
				-0.011214 0.000463 0.003932
				0.000874 -0.001712 0.005076
				-0.010531 0.001539 0.001233
				-0.007147 0.003218 0.007170
				-0.009537 0.002186 0.004842
				</DataArray>
			</Points>
			<Polys>
				<DataArray type="Int32" Name="connectivity" format="ascii">
					0 1 2
					0 2 3
					4 5 1
					4 1 0
					6 4 0
					6 0 3
					5 7 8
					5 8 1
					1 8 9
					1 9 2
					3 2 10
					3 10 11
					2 9 12
					2 12 10
					6 3 11
					13 14 5
					13 5 4
					6 13 4
					14 15 7
					14 7 5
					6 16 13
					6 11 17
					6 17 18
					6 18 16
					15 19 20
					15 20 7
					7 20 21
					7 21 8
					8 21 22
					8 22 9
					9 22 23
					9 23 12
					11 10 24
					11 24 17
					10 12 25
					10 25 24
					12 23 26
					12 26 25
					16 27 14
					16 14 13
					27 28 15
					27 15 14
					28 29 19
					28 19 15
					18 30 27
					18 27 16
					17 24 30
					17 30 18
					19 29 31
					20 19 31
					21 20 31
					22 21 31
					23 22 31
					26 23 31
					24 25 32
					24 32 30
					25 26 33
					25 33 32
					33 26 31
					30 32 28
					30 28 27
					32 33 29
					32 29 28
					29 33 31
				</DataArray>
				<DataArray type="Int32" Name="offsets" format="ascii">
					3 6 9 12 15 18 21 24 27 30 33 36 39 42 45 48 51 54 57 60 63 66 69 72 75 78 81 84 87 90 93 96 99 102 105 108 111 114 117 120 123 126 129 132 135 138 141 144 147 150 153 156 159 162 165 168 171 174 177 180 183 186 189 192
				</DataArray>
			</Polys>
		</Piece>
	</PolyData>
</VTKFile>
