<?xml version="1.0"?>
<VTKFile type="PolyData" version="0.1" byte_order="LittleEndian" compressor="vtkZLibDataCompressor">
	<PolyData>
		<Piece NumberOfPoints="47" NumberOfVerts="0" NumberOfLines="0" NumberOfStrips="0" NumberOfPolys="90">
			<PointData Normals="Normals">
				<DataArray type="Float32" Name="Normals" NumberOfComponents="3" format="ascii">
				0.000000 0.000000 0.000000
				0.000000 0.000000 0.000000
				0.000000 0.000000 0.000000
				0.000000 0.000000 0.000000
				0.000000 0.000000 0.000000
				0.000000 0.000000 0.000000
				0.000000 0.000000 0.000000
				0.000000 0.000000 0.000000
				0.000000 0.000000 0.000000
				0.000000 0.000000 0.000000
				0.000000 0.000000 0.000000
				0.000000 0.000000 0.000000
				0.000000 0.000000 0.000000
				0.000000 0.000000 0.000000
				0.000000 0.000000 0.000000
				0.000000 0.000000 0.000000
				0.000000 0.000000 0.000000
				0.000000 0.000000 0.000000
				0.000000 0.000000 0.000000
				0.000000 0.000000 0.000000
				0.000000 0.000000 0.000000
				0.000000 0.000000 0.000000
				0.000000 0.000000 0.000000
				0.000000 0.000000 0.000000
				0.000000 0.000000 0.000000
				0.000000 0.000000 0.000000
				0.000000 0.000000 0.000000
				0.000000 0.000000 0.000000
				0.000000 0.000000 0.000000
				0.000000 0.000000 0.000000
				0.000000 0.000000 0.000000
				0.000000 0.000000 0.000000
				0.000000 0.000000 0.000000
				0.000000 0.000000 0.000000
				0.000000 0.000000 0.000000
				0.000000 0.000000 0.000000
				0.000000 0.000000 0.000000
				0.000000 0.000000 0.000000
				0.000000 0.000000 0.000000
				0.000000 0.000000 0.000000
				0.000000 0.000000 0.000000
				0.000000 0.000000 0.000000
				0.000000 0.000000 0.000000
				0.000000 0.000000 0.000000
				0.000000 0.000000 0.000000
				0.000000 0.000000 0.000000
				0.000000 0.000000 0.000000
				</DataArray>
			</PointData>
			<Points>
				<DataArray type="Float32" NumberOfComponents="3" format="ascii">
				0.006112 0.000757 -0.004990
				0.000049 -0.000897 -0.003804
				0.001738 0.001923 -0.004982
				0.005966 0.002566 -0.005646
				0.005180 -0.000002 -0.004641
				0.000253 -0.001675 -0.002801
				0.007084 0.003842 -0.004619
				-0.005262 -0.007952 -0.001032
				-0.001724 -0.001652 -0.005202
				-0.003992 -0.009062 0.001853
				0.002309 0.006030 -0.004736
				0.006252 0.005973 -0.005894
				-0.000650 0.005944 -0.007958
				0.006971 0.000070 -0.004145
				0.004318 -0.001295 -0.003181
				0.003108 -0.002699 -0.002660
				0.007754 0.009266 -0.005205
				0.008842 0.009428 -0.003486
				0.008634 0.004748 -0.003695
				0.008049 0.001775 -0.003876
				-0.011698 -0.005972 0.003154
				-0.013204 -0.001065 0.001618
				-0.007328 -0.007547 0.004660
				-0.008571 0.006571 -0.000084
				-0.002097 -0.001590 0.006169
				0.004914 0.010337 -0.004684
				0.004472 0.011772 -0.002740
				-0.002155 0.010294 0.002639
				0.007006 0.000945 -0.000552
				0.006834 0.001841 0.005749
				0.002726 0.005162 0.009395
				0.008312 0.010950 -0.001812
				0.008172 0.005733 -0.000909
				-0.010222 -0.000823 0.005471
				-0.010503 0.001663 0.004084
				-0.008295 0.000144 0.005908
				-0.007999 0.004386 0.003301
				-0.005162 0.002518 0.005813
				-0.004699 0.006627 0.004426
				-0.001981 0.003905 0.007671
				0.005868 0.011114 0.000927
				-0.000213 0.010961 0.005935
				-0.003516 0.008725 0.004799
				0.007365 0.006611 0.000938
				-0.000882 0.008401 0.008560
				-0.003185 0.005640 0.006631
				-0.006174 0.003643 0.005345
				</DataArray>
			</Points>
			<Polys>
				<DataArray type="Int32" Name="connectivity" format="ascii">
					0 1 2
					0 2 3
					4 5 1
					4 1 0
					6 0 3
					6 4 0
					1 7 8
					1 8 2
					5 9 7
					5 7 1
					3 2 10
					3 10 11
					2 8 12
					2 12 10
					6 3 11
					13 14 5
					13 5 4
					6 13 4
					14 15 9
					14 9 5
					6 11 16
					6 16 17
					6 17 18
					6 18 19
					6 19 13
					7 20 21
					7 21 8
					9 22 20
					9 20 7
					8 21 23
					8 23 12
					15 24 22
					15 22 9
					11 10 25
					11 25 16
					10 12 26
					10 26 25
					12 23 27
					12 27 26
					19 28 14
					19 14 13
					28 29 15
					28 15 14
					29 30 24
					29 24 15
					16 25 31
					16 31 17
					17 31 32
					17 32 18
					18 32 28
					18 28 19
					20 33 34
					20 34 21
					22 35 33
					22 33 20
					21 34 36
					21 36 23
					24 37 35
					24 35 22
					23 36 38
					23 38 27
					30 39 37
					30 37 24
					25 26 40
					25 40 31
					26 27 41
					26 41 40
					27 38 42
					27 42 41
					32 43 29
					32 29 28
					43 44 30
					43 30 29
					44 45 39
					44 39 30
					31 40 43
					31 43 32
					34 33 46
					33 35 46
					36 34 46
					35 37 46
					38 36 46
					37 39 46
					42 38 46
					39 45 46
					40 41 44
					40 44 43
					41 42 45
					41 45 44
					45 42 46
				</DataArray>
				<DataArray type="Int32" Name="offsets" format="ascii">
					3 6 9 12 15 18 21 24 27 30 33 36 39 42 45 48 51 54 57 60 63 66 69 72 75 78 81 84 87 90 93 96 99 102 105 108 111 114 117 120 123 126 129 132 135 138 141 144 147 150 153 156 159 162 165 168 171 174 177 180 183 186 189 192 195 198 201 204 207 210 213 216 219 222 225 228 231 234 237 240 243 246 249 252 255 258 261 264 267 270
				</DataArray>
			</Polys>
		</Piece>
	</PolyData>
</VTKFile>
